                         Program Version 6.1.0  -  RELEASE   -
|  1> ! MP2 6-31G** opt numfreq
|  2>
|  3> * xyzfile 0 1 hydrogen-bond-input-coordinates.xyz
|  4>
|  5>                          ****END OF INPUT****
 Total Charge           Charge          ....    0
 Multiplicity           Mult            ....    1
 Number of Electrons    NEL             ....   20
 Basis Dimension        Dim             ....   48

ORBITAL ENERGIES
----------------

  NO   OCC          E(Eh)            E(eV)
   0   2.0000     -20.578245      -559.9625
   1   2.0000     -20.548794      -559.1611
   2   2.0000      -1.371473       -37.3197
   3   2.0000      -1.334702       -36.3191
   4   2.0000      -0.771208       -20.9856
   5   2.0000      -0.692984       -18.8571
   6   2.0000      -0.584230       -15.8977
   7   2.0000      -0.553544       -15.0627
   8   2.0000      -0.517765       -14.0891
   9   2.0000      -0.489704       -13.3255
  10   0.0000       0.187537         5.1032
  11   0.0000       0.253526         6.8988
  12   0.0000       0.302121         8.2211
  13   0.0000       0.426465        11.6047
  14   0.0000       0.983611        26.7654

MULLIKEN ATOMIC CHARGES
-----------------------
   0 O :   -0.648792
   1 H :    0.317541
   2 H :    0.325023
   3 O :   -0.619764
   4 H :    0.335349
   5 H :    0.290643
Sum of atomic charges:    0.0000000

LOEWDIN ATOMIC CHARGES
----------------------
   0 O :   -0.307449
   1 H :    0.157399
   2 H :    0.137224
   3 O :   -0.293667
   4 H :    0.166261
   5 H :    0.140232

  Mayer bond orders larger than 0.100000
B(  0-O ,  1-H ) :   0.8580 B(  0-O ,  2-H ) :   0.8182 B(  3-O ,  4-H ) :   0.8440
B(  3-O ,  5-H ) :   0.8436

MP2 TOTAL ENERGY:     -152.419198172 Eh
FINAL SINGLE POINT ENERGY      -152.419198171877
MP2 TOTAL ENERGY:     -152.424201637 Eh
FINAL SINGLE POINT ENERGY      -152.424201637351
MP2 TOTAL ENERGY:     -152.427746562 Eh
FINAL SINGLE POINT ENERGY      -152.427746561743
MP2 TOTAL ENERGY:     -152.431152236 Eh
FINAL SINGLE POINT ENERGY      -152.431152235644
MP2 TOTAL ENERGY:     -152.433735248 Eh
FINAL SINGLE POINT ENERGY      -152.433735248077
MP2 TOTAL ENERGY:     -152.435794385 Eh
FINAL SINGLE POINT ENERGY      -152.435794384520
FINAL SINGLE POINT ENERGY      -152.437174875713
FINAL SINGLE POINT ENERGY      -152.438044997717
FINAL SINGLE POINT ENERGY      -152.439241580211
FINAL SINGLE POINT ENERGY      -152.440665819162
FINAL SINGLE POINT ENERGY      -152.445673848047
FINAL SINGLE POINT ENERGY      -152.445676959708
FINAL SINGLE POINT ENERGY      -152.445711910297
FINAL SINGLE POINT ENERGY      -152.445720767038
MP2 TOTAL ENERGY:     -152.445724985 Eh
FINAL SINGLE POINT ENERGY      -152.445724985181
MP2 TOTAL ENERGY:     -152.445732449 Eh
FINAL SINGLE POINT ENERGY      -152.445732449453
MP2 TOTAL ENERGY:     -152.445741244 Eh
FINAL SINGLE POINT ENERGY      -152.445741244073
MP2 TOTAL ENERGY:     -152.445748966 Eh
FINAL SINGLE POINT ENERGY      -152.445748965567
MP2 TOTAL ENERGY:     -152.445756599 Eh
FINAL SINGLE POINT ENERGY      -152.445756598641

CARTESIAN COORDINATES (ANGSTROEM)
---------------------------------
  O     -1.956517    1.819359   -0.393335
  H     -1.906175    1.150774    0.294514
  H     -1.336672    2.503963   -0.104830
  O     -0.403738    4.199866    0.236622
  H     -1.205023    4.735234    0.229519
  H      0.007898    4.374187   -0.616958

MP2 TOTAL ENERGY:     -152.445760667 Eh
FINAL SINGLE POINT ENERGY      -152.445760667265
                             ****ORCA TERMINATED NORMALLY****
TOTAL RUN TIME: 0 days 0 hours 0 minutes 31 seconds 109 msec
