                         Program Version 6.1.0  -  RELEASE   -
|  1> ! MP2 6-31G(d,p) optts numfreq irc
|  2>
|  3> * xyz 0 1
|  4> N     -1.614793    0.772383    0.000000
|  5> H     -2.302069    0.574089   -0.741102
|  6> H     -0.767917    1.303838    0.218676
|  7> H     -1.856018    0.234689    0.844746
|  8> *
|  9>
| 10>
| 11>                          ****END OF INPUT****
 Total Charge           Charge          ....    0
 Multiplicity           Mult            ....    1
 Number of Electrons    NEL             ....   10
MP2 TOTAL ENERGY:      -56.355931186 Eh
FINAL SINGLE POINT ENERGY       -56.355931185539
MP2 TOTAL ENERGY:      -56.358265539 Eh
FINAL SINGLE POINT ENERGY       -56.358265538818
MP2 TOTAL ENERGY:      -56.364874277 Eh
FINAL SINGLE POINT ENERGY       -56.364874277303
MP2 TOTAL ENERGY:      -56.364453741 Eh
FINAL SINGLE POINT ENERGY       -56.364453740673
MP2 TOTAL ENERGY:      -56.367691941 Eh
FINAL SINGLE POINT ENERGY       -56.367691940950
MP2 TOTAL ENERGY:      -56.369416220 Eh
FINAL SINGLE POINT ENERGY       -56.369416220335
MP2 TOTAL ENERGY:      -56.371135604 Eh
FINAL SINGLE POINT ENERGY       -56.371135603902
MP2 TOTAL ENERGY:      -56.371291545 Eh
FINAL SINGLE POINT ENERGY       -56.371291544878
MP2 TOTAL ENERGY:      -56.371291967 Eh
FINAL SINGLE POINT ENERGY       -56.371291966760
                    ***********************HURRAY********************

CARTESIAN COORDINATES (ANGSTROEM)
---------------------------------
  N     -1.635091    0.721248    0.080597
  H     -2.193208    0.659018   -0.740938
  H     -0.834090    1.311572    0.094466
  H     -1.878408    0.193161    0.888195

 Multiplicity           Mult            ....    1
 Number of Electrons    NEL             ....   10
 Basis Dimension        Dim             ....   29

ORBITAL ENERGIES
----------------

  NO   OCC          E(Eh)            E(eV)
   0   2.0000     -15.515926      -422.2098
   1   2.0000      -1.114019       -30.3140
   2   2.0000      -0.639234       -17.3945
   3   2.0000      -0.639144       -17.3920
   4   2.0000      -0.379839       -10.3359
   5   0.0000       0.232745         6.3333
   6   0.0000       0.330984         9.0065
   7   0.0000       0.330987         9.0066
   8   0.0000       0.930747        25.3269
   9   0.0000       0.930957        25.3326

MULLIKEN ATOMIC CHARGES
-----------------------
   0 N :   -0.817979
   1 H :    0.272639
   2 H :    0.272683
   3 H :    0.272657
Sum of atomic charges:    0.0000000

LOEWDIN ATOMIC CHARGES
----------------------
   0 N :   -0.382838
   1 H :    0.127602
   2 H :    0.127623
   3 H :    0.127613

  Mayer bond orders larger than 0.100000
B(  0-N ,  1-H ) :   0.8871 B(  0-N ,  2-H ) :   0.8871 B(  0-N ,  3-H ) :   0.8871

MP2 TOTAL ENERGY:      -56.371291939 Eh
FINAL SINGLE POINT ENERGY       -56.371291938705

DIPOLE MOMENT
-------------

Method             : MP2
Type of density    : Electron Density
Multiplicity       :   1
Level              : Relaxed density
Irrep              :   0
Energy             :     0.0000000000000000 Eh
Basis              : AO
                                X                 Y                 Z
Electronic contribution:      0.000139496       0.000084532       0.000069467
Nuclear contribution   :     -0.000333175       0.000006928      -0.000051929
                        -----------------------------------------
Total Dipole Moment    :     -0.000193679       0.000091460       0.000017537
                        -----------------------------------------
Magnitude (a.u.)       :      0.000214904
Magnitude (Debye)      :      0.000546244

VIBRATIONAL FREQUENCIES
-----------------------

Scaling factor for frequencies =  1.000000000  (already applied!)

     0:       0.00 cm**-1
     1:       0.00 cm**-1
     2:       0.00 cm**-1
     3:       0.00 cm**-1
     4:       0.00 cm**-1
     5:       0.00 cm**-1
     6:    -893.49 cm**-1  ***imaginary mode***
     7:    1635.01 cm**-1
     8:    1635.52 cm**-1
     9:    3749.26 cm**-1
    10:    3974.77 cm**-1
    11:    3974.93 cm**-1

IR SPECTRUM
-----------

 Mode   freq       eps      Int      T**2         TX        TY        TZ
       cm**-1   L/(mol*cm) km/mol    a.u.
----------------------------------------------------------------------------
  7:   1635.01   0.007907   39.96  0.001509  (-0.004509  0.012114 -0.036635)
  8:   1635.52   0.007873   39.79  0.001502  (-0.031703 -0.022037 -0.003403)
  9:   3749.26   0.000000    0.00  0.000000  ( 0.000022 -0.000059 -0.000057)
 10:   3974.77   0.008711   44.02  0.000684  (-0.017427 -0.004808 -0.018898)
 11:   3974.93   0.008708   44.01  0.000684  (-0.012732 -0.016397  0.015896)

--------------------------
THERMOCHEMISTRY AT 298.15K
--------------------------

Temperature         ...   298.15 K
Pressure            ...     1.00 atm
Total Mass          ...    17.03 AMU
Quasi RRHO          ...     True
Cut-Off Frequency   ...     1.00 cm^-1

Throughout the following assumptions are being made:
  (1) The electronic state is orbitally nondegenerate
  (2) There are no thermally accessible electronically excited states
  (3) Hindered rotations indicated by low frequency modes are not
      treated as such but are treated as vibrations and this may
      cause some error
  (4) All equations used are the standard statistical mechanics
      equations for an ideal gas
  (5) All vibrations are strictly harmonic

freq.    1635.01  E(vib)   ...       0.00
freq.    1635.52  E(vib)   ...       0.00
freq.    3749.26  E(vib)   ...       0.00
freq.    3974.77  E(vib)   ...       0.00
freq.    3974.93  E(vib)   ...       0.00

------------
INNER ENERGY
------------

The inner energy is: U= E(el) + E(ZPE) + E(vib) + E(rot) + E(trans)
    E(el)   - is the total energy from the electronic structure calculation
              = E(kin-el) + E(nuc-el) + E(el-el) + E(nuc-nuc)
    E(ZPE)  - the the zero temperature vibrational energy from the frequency calculation
    E(vib)  - the the finite temperature correction to E(ZPE) due to population
              of excited vibrational states
    E(rot)  - is the rotational thermal energy
    E(trans)- is the translational thermal energy

Summary of contributions to the inner energy U:
Electronic energy                ...    -56.37129195 Eh
Zero point energy                ...      0.03410298 Eh      21.40 kcal/mol
Thermal vibrational correction   ...      0.00000558 Eh       0.00 kcal/mol
Thermal rotational correction    ...      0.00141627 Eh       0.89 kcal/mol
Thermal translational correction ...      0.00141627 Eh       0.89 kcal/mol
-----------------------------------------------------------------------
Total thermal energy                    -56.33435085 Eh

Summary of corrections to the electronic energy:
(perhaps to be used in another calculation)
Total thermal correction                  0.00283812 Eh       1.78 kcal/mol
Non-thermal (ZPE) correction              0.03410298 Eh      21.40 kcal/mol
-----------------------------------------------------------------------
Total correction                          0.03694110 Eh      23.18 kcal/mol

--------
ENTHALPY
--------

The enthalpy is H = U + kB*T
                kB is Boltzmann's constant
Total thermal energy              ...    -56.33435085 Eh
Thermal Enthalpy correction       ...      0.00094421 Eh       0.59 kcal/mol
-----------------------------------------------------------------------
Total Enthalpy                    ...    -56.33340664 Eh

Note: Only C1 symmetry has been detected, increase convergence thresholds
      if your molecule has a higher symmetry. Symmetry factor of 1.0 is
      used for the rotational entropy correction.

Note: Rotational entropy computed according to Herzberg
Infrared and Raman Spectra, Chapter V,1, Van Nostrand Reinhold, 1945
Point Group:  C1, Symmetry Number:   1
Rotational constants in cm-1:    11.261355    11.255853     5.629302

Vibrational entropy computed according to the QRRHO of S. Grimme
Chem.Eur.J. 2012 18 9955 using a reference frequency of 100.0 cm-1

-------
ENTROPY
-------

The entropy contributions are T*S = T*(S(el)+S(vib)+S(rot)+S(trans))
     S(el)   - electronic entropy
     S(vib)  - vibrational entropy
     S(rot)  - rotational entropy
     S(trans)- translational entropy
The entropies will be listed as multiplied by the temperature to get
units of energy

Electronic entropy                ...      0.00000000 Eh      0.00 kcal/mol
Vibrational entropy               ...      0.00000628 Eh      0.00 kcal/mol
Rotational entropy                ...      0.00640906 Eh      4.02 kcal/mol
Translational entropy             ...      0.01636425 Eh     10.27 kcal/mol
-----------------------------------------------------------------------
Final entropy term                ...      0.02277959 Eh     14.29 kcal/mol

In case the symmetry of your molecule has not been determined correctly
or in case you have a reason to use a different symmetry number we print
out the resulting rotational entropy values for sn=1,12:

 non-linear molecules -----------------------------------
|  sn= 1 | S(rot)=       0.00640906 Eh      4.02 kcal/mol|
|  sn= 2 | S(rot)=       0.00575460 Eh      3.61 kcal/mol|
|  sn= 3 | S(rot)=       0.00537177 Eh      3.37 kcal/mol|
|  sn= 4 | S(rot)=       0.00510014 Eh      3.20 kcal/mol|
|  sn= 5 | S(rot)=       0.00488946 Eh      3.07 kcal/mol|
|  sn= 6 | S(rot)=       0.00471731 Eh      2.96 kcal/mol|
|  sn= 7 | S(rot)=       0.00457177 Eh      2.87 kcal/mol|
|  sn= 8 | S(rot)=       0.00444569 Eh      2.79 kcal/mol|
|  sn= 9 | S(rot)=       0.00433448 Eh      2.72 kcal/mol|
|  sn=10 | S(rot)=       0.00423500 Eh      2.66 kcal/mol|
|  sn=11 | S(rot)=       0.00414501 Eh      2.60 kcal/mol|
|  sn=12 | S(rot)=       0.00406286 Eh      2.55 kcal/mol|
 linear molecules ---------------------------------------
|  Dinfh | S(rot)=       0.00369428 Eh      2.32 kcal/mol|
|  Cinfv | S(rot)=       0.00434873 Eh      2.73 kcal/mol|
 --------------------------------------------------------

-------------------
GIBBS FREE ENERGY
-------------------

The Gibbs free energy is G = H - T*S

Total enthalpy                    ...    -56.33340664 Eh
Total entropy correction          ...     -0.02277959 Eh    -14.29 kcal/mol
-----------------------------------------------------------------------
Final Gibbs free energy         ...    -56.35618623 Eh

For completeness - the Gibbs free energy minus the electronic energy
G-E(el)                           ...      0.01510572 Eh      9.48 kcal/mol

                      ***********************HURRAY********************
                             ****ORCA TERMINATED NORMALLY****
TOTAL RUN TIME: 0 days 0 hours 0 minutes 31 seconds 600 msec
