                         Program Version 6.1.0  -  RELEASE   -
|  1> ! MP2 6-311G** opt numfreq
|  2>
|  3> * xyzfile 0 1 /home/vivek/mm/lab5/6-311/water/monomer/monomer-input-coordinates.xyz
|  4>
|  5>                          ****END OF INPUT****
 Total Charge           Charge          ....    0
 Multiplicity           Mult            ....    1
 Number of Electrons    NEL             ....   10
MP2 TOTAL ENERGY:      -76.263771423 Eh
FINAL SINGLE POINT ENERGY       -76.263771422616
MP2 TOTAL ENERGY:      -76.263956285 Eh
FINAL SINGLE POINT ENERGY       -76.263956284689
MP2 TOTAL ENERGY:      -76.263968493 Eh
FINAL SINGLE POINT ENERGY       -76.263968493381
MP2 TOTAL ENERGY:      -76.263971892 Eh
FINAL SINGLE POINT ENERGY       -76.263971892091
                    ***********************HURRAY********************

CARTESIAN COORDINATES (ANGSTROEM)
---------------------------------
  O     -1.958515    1.821492   -0.398246
  H     -1.899372    1.162235    0.294058
  H     -1.341477    2.490369   -0.099463

 Multiplicity           Mult            ....    1
 Number of Electrons    NEL             ....   10
 Basis Dimension        Dim             ....   30

ORBITAL ENERGIES
----------------

  NO   OCC          E(Eh)            E(eV)
   0   2.0000     -20.546141      -559.0889
   1   2.0000      -1.342757       -36.5383
   2   2.0000      -0.702157       -19.1067
   3   2.0000      -0.575965       -15.6728
   4   2.0000      -0.500500       -13.6193
   5   0.0000       0.149693         4.0734
   6   0.0000       0.217235         5.9113
   7   0.0000       0.562728        15.3126
   8   0.0000       0.619177        16.8487
   9   0.0000       0.999128        27.1877

MULLIKEN ATOMIC CHARGES
-----------------------
   0 O :   -0.466208
   1 H :    0.233103
   2 H :    0.233104
Sum of atomic charges:    0.0000000

LOEWDIN ATOMIC CHARGES
----------------------
   0 O :   -0.060222
   1 H :    0.030110
   2 H :    0.030112

  Mayer bond orders larger than 0.100000
B(  0-O ,  1-H ) :   0.9288 B(  0-O ,  2-H ) :   0.9288

MP2 TOTAL ENERGY:      -76.263971890 Eh
FINAL SINGLE POINT ENERGY       -76.263971889904

DIPOLE MOMENT
-------------

Method             : MP2
Type of density    : Electron Density
Multiplicity       :   1
Level              : Relaxed density
Irrep              :   0
Energy             :     0.0000000000000000 Eh
Basis              : AO
                                X                 Y                 Z
Electronic contribution:     -0.097039649      -0.001379269      -0.142233666
Nuclear contribution   :      0.562825792       0.008007684       0.824941817
                        -----------------------------------------
Total Dipole Moment    :      0.465786143       0.006628415       0.682708151
                        -----------------------------------------
Magnitude (a.u.)       :      0.826493247
Magnitude (Debye)      :      2.100778881

VIBRATIONAL FREQUENCIES
-----------------------

Scaling factor for frequencies =  1.000000000  (already applied!)

     0:       0.00 cm**-1
     1:       0.00 cm**-1
     2:       0.00 cm**-1
     3:       0.00 cm**-1
     4:       0.00 cm**-1
     5:       0.00 cm**-1
     6:    1666.77 cm**-1
     7:    3904.73 cm**-1
     8:    4011.97 cm**-1

IR SPECTRUM
-----------

 Mode   freq       eps      Int      T**2         TX        TY        TZ
       cm**-1   L/(mol*cm) km/mol    a.u.
----------------------------------------------------------------------------
  6:   1666.77   0.010124   51.16  0.001896  (-0.024436 -0.000453 -0.036031)
  7:   3904.73   0.001251    6.32  0.000100  (-0.005689  0.000030 -0.008221)
  8:   4011.97   0.006585   33.28  0.000512  ( 0.008551  0.020079 -0.005994)

--------------------------
THERMOCHEMISTRY AT 298.15K
--------------------------

Temperature         ...   298.15 K
Pressure            ...     1.00 atm
Total Mass          ...    18.02 AMU
Quasi RRHO          ...     True
Cut-Off Frequency   ...     1.00 cm^-1

Throughout the following assumptions are being made:
  (1) The electronic state is orbitally nondegenerate
  (2) There are no thermally accessible electronically excited states
  (3) Hindered rotations indicated by low frequency modes are not
      treated as such but are treated as vibrations and this may
      cause some error
  (4) All equations used are the standard statistical mechanics
      equations for an ideal gas
  (5) All vibrations are strictly harmonic

freq.    1666.77  E(vib)   ...       0.00
freq.    3904.73  E(vib)   ...       0.00
freq.    4011.97  E(vib)   ...       0.00

------------
INNER ENERGY
------------

The inner energy is: U= E(el) + E(ZPE) + E(vib) + E(rot) + E(trans)
    E(el)   - is the total energy from the electronic structure calculation
              = E(kin-el) + E(nuc-el) + E(el-el) + E(nuc-nuc)
    E(ZPE)  - the the zero temperature vibrational energy from the frequency calculation
    E(vib)  - the the finite temperature correction to E(ZPE) due to population
              of excited vibrational states
    E(rot)  - is the rotational thermal energy
    E(trans)- is the translational thermal energy

Summary of contributions to the inner energy U:
Electronic energy                ...    -76.26397189 Eh
Zero point energy                ...      0.02183275 Eh      13.70 kcal/mol
Thermal vibrational correction   ...      0.00000244 Eh       0.00 kcal/mol
Thermal rotational correction    ...      0.00141627 Eh       0.89 kcal/mol
Thermal translational correction ...      0.00141627 Eh       0.89 kcal/mol
-----------------------------------------------------------------------
Total thermal energy                    -76.23930416 Eh

Summary of corrections to the electronic energy:
(perhaps to be used in another calculation)
Total thermal correction                  0.00283498 Eh       1.78 kcal/mol
Non-thermal (ZPE) correction              0.02183275 Eh      13.70 kcal/mol
-----------------------------------------------------------------------
Total correction                          0.02466773 Eh      15.48 kcal/mol

--------
ENTHALPY
--------

The enthalpy is H = U + kB*T
                kB is Boltzmann's constant
Total thermal energy              ...    -76.23930416 Eh
Thermal Enthalpy correction       ...      0.00094421 Eh       0.59 kcal/mol
-----------------------------------------------------------------------
Total Enthalpy                    ...    -76.23835995 Eh

Note: Rotational entropy computed according to Herzberg
Infrared and Raman Spectra, Chapter V,1, Van Nostrand Reinhold, 1945
Point Group:  C2v, Symmetry Number:   2
Rotational constants in cm-1:    26.162323    14.998658     9.533294

Vibrational entropy computed according to the QRRHO of S. Grimme
Chem.Eur.J. 2012 18 9955 using a reference frequency of 100.0 cm-1

-------
ENTROPY
-------

The entropy contributions are T*S = T*(S(el)+S(vib)+S(rot)+S(trans))
     S(el)   - electronic entropy
     S(vib)  - vibrational entropy
     S(rot)  - rotational entropy
     S(trans)- translational entropy
The entropies will be listed as multiplied by the temperature to get
units of energy

Electronic entropy                ...      0.00000000 Eh      0.00 kcal/mol
Vibrational entropy               ...      0.00000274 Eh      0.00 kcal/mol
Rotational entropy                ...      0.00497243 Eh      3.12 kcal/mol
Translational entropy             ...      0.01644380 Eh     10.32 kcal/mol
-----------------------------------------------------------------------
Final entropy term                ...      0.02141898 Eh     13.44 kcal/mol

In case the symmetry of your molecule has not been determined correctly
or in case you have a reason to use a different symmetry number we print
out the resulting rotational entropy values for sn=1,12:

 non-linear molecules -----------------------------------
|  sn= 1 | S(rot)=       0.00562689 Eh      3.53 kcal/mol|
|  sn= 2 | S(rot)=       0.00497243 Eh      3.12 kcal/mol|
|  sn= 3 | S(rot)=       0.00458960 Eh      2.88 kcal/mol|
|  sn= 4 | S(rot)=       0.00431798 Eh      2.71 kcal/mol|
|  sn= 5 | S(rot)=       0.00410729 Eh      2.58 kcal/mol|
|  sn= 6 | S(rot)=       0.00393514 Eh      2.47 kcal/mol|
|  sn= 7 | S(rot)=       0.00378960 Eh      2.38 kcal/mol|
|  sn= 8 | S(rot)=       0.00366352 Eh      2.30 kcal/mol|
|  sn= 9 | S(rot)=       0.00355231 Eh      2.23 kcal/mol|
|  sn=10 | S(rot)=       0.00345283 Eh      2.17 kcal/mol|
|  sn=11 | S(rot)=       0.00336284 Eh      2.11 kcal/mol|
|  sn=12 | S(rot)=       0.00328069 Eh      2.06 kcal/mol|
 linear molecules ---------------------------------------
|  Dinfh | S(rot)=       0.00319688 Eh      2.01 kcal/mol|
|  Cinfv | S(rot)=       0.00385133 Eh      2.42 kcal/mol|
 --------------------------------------------------------

-------------------
GIBBS FREE ENERGY
-------------------

The Gibbs free energy is G = H - T*S

Total enthalpy                    ...    -76.23835995 Eh
Total entropy correction          ...     -0.02141898 Eh    -13.44 kcal/mol
-----------------------------------------------------------------------
Final Gibbs free energy         ...    -76.25977892 Eh

For completeness - the Gibbs free energy minus the electronic energy
G-E(el)                           ...      0.00419297 Eh      2.63 kcal/mol

                             ****ORCA TERMINATED NORMALLY****
TOTAL RUN TIME: 0 days 0 hours 2 minutes 25 seconds 924 msec
