                         Program Version 6.1.0  -  RELEASE   -
|  1> ! MP2 6-31G(d,p) optts numfreq irc
|  2>
|  3> * xyzfile 1 1 oh3plus-input-coordinates.xyz
|  4>
|  5>                          ****END OF INPUT****
 Total Charge           Charge          ....    1
 Multiplicity           Mult            ....    1
 Number of Electrons    NEL             ....   10
MP2 TOTAL ENERGY:      -76.482750796 Eh
FINAL SINGLE POINT ENERGY       -76.482750795976
MP2 TOTAL ENERGY:      -76.484129054 Eh
FINAL SINGLE POINT ENERGY       -76.484129053668
MP2 TOTAL ENERGY:      -76.491093198 Eh
FINAL SINGLE POINT ENERGY       -76.491093198412
MP2 TOTAL ENERGY:      -76.484603874 Eh
FINAL SINGLE POINT ENERGY       -76.484603873590
MP2 TOTAL ENERGY:      -76.478691429 Eh
FINAL SINGLE POINT ENERGY       -76.478691429041
MP2 TOTAL ENERGY:      -76.473766835 Eh
FINAL SINGLE POINT ENERGY       -76.473766834746
FINAL SINGLE POINT ENERGY       -76.468496661417
FINAL SINGLE POINT ENERGY       -76.462935001444
FINAL SINGLE POINT ENERGY       -76.457159789228
FINAL SINGLE POINT ENERGY       -76.451277770447
FINAL SINGLE POINT ENERGY       -76.501165889627
FINAL SINGLE POINT ENERGY       -76.501164090247
FINAL SINGLE POINT ENERGY       -76.501162386067
FINAL SINGLE POINT ENERGY       -76.501160952776
MP2 TOTAL ENERGY:      -76.501159813 Eh
FINAL SINGLE POINT ENERGY       -76.501159812772
MP2 TOTAL ENERGY:      -76.501158924 Eh
FINAL SINGLE POINT ENERGY       -76.501158924449
MP2 TOTAL ENERGY:      -76.501158258 Eh
FINAL SINGLE POINT ENERGY       -76.501158257798
MP2 TOTAL ENERGY:      -76.501157758 Eh
FINAL SINGLE POINT ENERGY       -76.501157758320
MP2 TOTAL ENERGY:      -76.501157386 Eh
FINAL SINGLE POINT ENERGY       -76.501157386058
                    ***********************HURRAY********************

CARTESIAN COORDINATES (ANGSTROEM)
---------------------------------
  O      1.459196    2.288621    0.193803
  H      2.201754    1.818756    0.611730
  H      1.502856    3.252200    0.066571
  H      0.668778    1.796247   -0.087916

 Multiplicity           Mult            ....    1
 Number of Electrons    NEL             ....   10
 Basis Dimension        Dim             ....   29

ORBITAL ENERGIES
----------------

  NO   OCC          E(Eh)            E(eV)
   0   2.0000     -20.996993      -571.3572
   1   2.0000      -1.787994       -48.6538
   2   2.0000      -1.142301       -31.0836
   3   2.0000      -1.142277       -31.0829
   4   2.0000      -0.928982       -25.2789
   5   0.0000      -0.108821        -2.9612
   6   0.0000       0.005902         0.1606
   7   0.0000       0.005935         0.1615
   8   0.0000       0.657085        17.8802
   9   0.0000       0.662731        18.0338

MULLIKEN ATOMIC CHARGES
-----------------------
   0 O :   -0.446580
   1 H :    0.482251
   2 H :    0.482173
   3 H :    0.482156
Sum of atomic charges:    1.0000000

LOEWDIN ATOMIC CHARGES
----------------------
   0 O :    0.148261
   1 H :    0.283997
   2 H :    0.283879
   3 H :    0.283863

  Mayer bond orders larger than 0.100000
B(  0-O ,  1-H ) :   0.7344 B(  0-O ,  2-H ) :   0.7345 B(  0-O ,  3-H ) :   0.7345

MP2 TOTAL ENERGY:      -76.501157110 Eh
FINAL SINGLE POINT ENERGY       -76.501157109703

DIPOLE MOMENT
-------------

Method             : MP2
Type of density    : Electron Density
Multiplicity       :   1
Level              : Relaxed density
Irrep              :   0
Energy             :     0.0000000000000000 Eh
Basis              : AO
                                X                 Y                 Z
Electronic contribution:     -0.000305076       0.000110056       0.000861411
Nuclear contribution   :     -0.003310608       0.001055329       0.007075949
                        -----------------------------------------
Total Dipole Moment    :     -0.003615684       0.001165384       0.007937360
                        -----------------------------------------
Magnitude (a.u.)       :      0.008799601
Magnitude (Debye)      :      0.022366808

VIBRATIONAL FREQUENCIES
-----------------------

Scaling factor for frequencies =  1.000000000  (already applied!)

     0:       0.00 cm**-1
     1:       0.00 cm**-1
     2:       0.00 cm**-1
     3:       0.00 cm**-1
     4:       0.00 cm**-1
     5:       0.00 cm**-1
     6:    -646.33 cm**-1  ***imaginary mode***
     7:    1656.31 cm**-1
     8:    1656.85 cm**-1
     9:    3701.70 cm**-1
    10:    3881.46 cm**-1
    11:    3883.14 cm**-1

IR SPECTRUM
-----------

 Mode   freq       eps      Int      T**2         TX        TY        TZ
       cm**-1   L/(mol*cm) km/mol    a.u.
----------------------------------------------------------------------------
  7:   1656.31   0.043136  217.99  0.008127  ( 0.069822  0.051559  0.024368)
  8:   1656.85   0.028269  142.86  0.005324  (-0.037134  0.057212 -0.025927)
  9:   3701.70   0.063941  323.13  0.005390  ( 0.059827  0.036552  0.021796)
 10:   3881.46   0.106352  537.46  0.008551  ( 0.039908 -0.077607  0.030578)
 11:   3883.14   0.023592  119.22  0.001896  (-0.013607  0.039573 -0.012031)

--------------------------
THERMOCHEMISTRY AT 298.15K
--------------------------

Temperature         ...   298.15 K
Pressure            ...     1.00 atm
Total Mass          ...    19.02 AMU
Quasi RRHO          ...     True
Cut-Off Frequency   ...     1.00 cm^-1

Throughout the following assumptions are being made:
  (1) The electronic state is orbitally nondegenerate
  (2) There are no thermally accessible electronically excited states
  (3) Hindered rotations indicated by low frequency modes are not
      treated as such but are treated as vibrations and this may
      cause some error
  (4) All equations used are the standard statistical mechanics
      equations for an ideal gas
  (5) All vibrations are strictly harmonic

freq.    1656.31  E(vib)   ...       0.00
freq.    1656.85  E(vib)   ...       0.00
freq.    3701.70  E(vib)   ...       0.00
freq.    3881.46  E(vib)   ...       0.00
freq.    3883.14  E(vib)   ...       0.00

------------
INNER ENERGY
------------

The inner energy is: U= E(el) + E(ZPE) + E(vib) + E(rot) + E(trans)
    E(el)   - is the total energy from the electronic structure calculation
              = E(kin-el) + E(nuc-el) + E(el-el) + E(nuc-nuc)
    E(ZPE)  - the the zero temperature vibrational energy from the frequency calculation
    E(vib)  - the the finite temperature correction to E(ZPE) due to population
              of excited vibrational states
    E(rot)  - is the rotational thermal energy
    E(trans)- is the translational thermal energy

Summary of contributions to the inner energy U:
Electronic energy                ...    -76.50115711 Eh
Zero point energy                ...      0.03367008 Eh      21.13 kcal/mol
Thermal vibrational correction   ...      0.00000510 Eh       0.00 kcal/mol
Thermal rotational correction    ...      0.00141627 Eh       0.89 kcal/mol
Thermal translational correction ...      0.00141627 Eh       0.89 kcal/mol
-----------------------------------------------------------------------
Total thermal energy                    -76.46464940 Eh

Summary of corrections to the electronic energy:
(perhaps to be used in another calculation)
Total thermal correction                  0.00283764 Eh       1.78 kcal/mol
Non-thermal (ZPE) correction              0.03367008 Eh      21.13 kcal/mol
-----------------------------------------------------------------------
Total correction                          0.03650772 Eh      22.91 kcal/mol

--------
ENTHALPY
--------

The enthalpy is H = U + kB*T
                kB is Boltzmann's constant
Total thermal energy              ...    -76.46464940 Eh
Thermal Enthalpy correction       ...      0.00094421 Eh       0.59 kcal/mol
-----------------------------------------------------------------------
Total Enthalpy                    ...    -76.46370519 Eh

Note: Only C1 symmetry has been detected, increase convergence thresholds
      if your molecule has a higher symmetry. Symmetry factor of 1.0 is
      used for the rotational entropy correction.

Note: Rotational entropy computed according to Herzberg
Infrared and Raman Spectra, Chapter V,1, Van Nostrand Reinhold, 1945
Point Group:  C1, Symmetry Number:   1
Rotational constants in cm-1:    11.779995    11.774824     5.888821

Vibrational entropy computed according to the QRRHO of S. Grimme
Chem.Eur.J. 2012 18 9955 using a reference frequency of 100.0 cm-1

-------
ENTROPY
-------

The entropy contributions are T*S = T*(S(el)+S(vib)+S(rot)+S(trans))
     S(el)   - electronic entropy
     S(vib)  - vibrational entropy
     S(rot)  - rotational entropy
     S(trans)- translational entropy
The entropies will be listed as multiplied by the temperature to get
units of energy

Electronic entropy                ...      0.00000000 Eh      0.00 kcal/mol
Vibrational entropy               ...      0.00000573 Eh      0.00 kcal/mol
Rotational entropy                ...      0.00634524 Eh      3.98 kcal/mol
Translational entropy             ...      0.01652091 Eh     10.37 kcal/mol
-----------------------------------------------------------------------
Final entropy term                ...      0.02287189 Eh     14.35 kcal/mol

In case the symmetry of your molecule has not been determined correctly
or in case you have a reason to use a different symmetry number we print
out the resulting rotational entropy values for sn=1,12:

 non-linear molecules -----------------------------------
|  sn= 1 | S(rot)=       0.00634524 Eh      3.98 kcal/mol|
|  sn= 2 | S(rot)=       0.00569079 Eh      3.57 kcal/mol|
|  sn= 3 | S(rot)=       0.00530796 Eh      3.33 kcal/mol|
|  sn= 4 | S(rot)=       0.00503633 Eh      3.16 kcal/mol|
|  sn= 5 | S(rot)=       0.00482564 Eh      3.03 kcal/mol|
|  sn= 6 | S(rot)=       0.00465350 Eh      2.92 kcal/mol|
|  sn= 7 | S(rot)=       0.00450795 Eh      2.83 kcal/mol|
|  sn= 8 | S(rot)=       0.00438188 Eh      2.75 kcal/mol|
|  sn= 9 | S(rot)=       0.00427067 Eh      2.68 kcal/mol|
|  sn=10 | S(rot)=       0.00417119 Eh      2.62 kcal/mol|
|  sn=11 | S(rot)=       0.00408120 Eh      2.56 kcal/mol|
|  sn=12 | S(rot)=       0.00399904 Eh      2.51 kcal/mol|
 linear molecules ---------------------------------------
|  Dinfh | S(rot)=       0.00365172 Eh      2.29 kcal/mol|
|  Cinfv | S(rot)=       0.00430618 Eh      2.70 kcal/mol|
 --------------------------------------------------------

-------------------
GIBBS FREE ENERGY
-------------------

The Gibbs free energy is G = H - T*S

Total enthalpy                    ...    -76.46370519 Eh
Total entropy correction          ...     -0.02287189 Eh    -14.35 kcal/mol
-----------------------------------------------------------------------
Final Gibbs free energy         ...    -76.48657708 Eh

For completeness - the Gibbs free energy minus the electronic energy
G-E(el)                           ...      0.01458004 Eh      9.15 kcal/mol

                      ***********************HURRAY********************
                             ****ORCA TERMINATED NORMALLY****
TOTAL RUN TIME: 0 days 0 hours 0 minutes 39 seconds 897 msec
