                         Program Version 6.1.0  -  RELEASE   -
|  1> ! MP2 6-311G** opt numfreq
|  2>
|  3> * xyzfile 0 1 /home/vivek/mm/lab5/6-311/hf/dimer/dimer-input-coordinates.xyz
|  4>
|  5>                          ****END OF INPUT****
 Total Charge           Charge          ....    0
 Multiplicity           Mult            ....    1
 Number of Electrons    NEL             ....   20
MP2 TOTAL ENERGY:     -200.537768133 Eh
FINAL SINGLE POINT ENERGY      -200.537768132600
MP2 TOTAL ENERGY:     -200.541117962 Eh
FINAL SINGLE POINT ENERGY      -200.541117961937
MP2 TOTAL ENERGY:     -200.541965559 Eh
FINAL SINGLE POINT ENERGY      -200.541965558791
MP2 TOTAL ENERGY:     -200.542252256 Eh
FINAL SINGLE POINT ENERGY      -200.542252255894
MP2 TOTAL ENERGY:     -200.542353811 Eh
FINAL SINGLE POINT ENERGY      -200.542353810654
MP2 TOTAL ENERGY:     -200.542437365 Eh
FINAL SINGLE POINT ENERGY      -200.542437364525
FINAL SINGLE POINT ENERGY      -200.542591848376
FINAL SINGLE POINT ENERGY      -200.542242857161
FINAL SINGLE POINT ENERGY      -200.543188571848
FINAL SINGLE POINT ENERGY      -200.543305586479
FINAL SINGLE POINT ENERGY      -200.544046458004
FINAL SINGLE POINT ENERGY      -200.544180939922
FINAL SINGLE POINT ENERGY      -200.544200276211
FINAL SINGLE POINT ENERGY      -200.544238282260
MP2 TOTAL ENERGY:     -200.544298866 Eh
FINAL SINGLE POINT ENERGY      -200.544298865542
MP2 TOTAL ENERGY:     -200.544347730 Eh
FINAL SINGLE POINT ENERGY      -200.544347729997
MP2 TOTAL ENERGY:     -200.544357522 Eh
FINAL SINGLE POINT ENERGY      -200.544357521847
MP2 TOTAL ENERGY:     -200.544358310 Eh
FINAL SINGLE POINT ENERGY      -200.544358309678
MP2 TOTAL ENERGY:     -200.544358483 Eh
FINAL SINGLE POINT ENERGY      -200.544358483205
                    ***********************HURRAY********************

CARTESIAN COORDINATES (ANGSTROEM)
---------------------------------
  F     -1.134547    2.436492   -0.113788
  H     -1.033562    2.277835    0.783596
  H     -2.948354    2.542300   -0.406307
  F     -3.840136    2.537576   -0.189778

 Multiplicity           Mult            ....    1
 Number of Electrons    NEL             ....   20
 Basis Dimension        Dim             ....   48

ORBITAL ENERGIES
----------------

  NO   OCC          E(Eh)            E(eV)
   0   2.0000     -26.324134      -716.3161
   1   2.0000     -26.250507      -714.3126
   2   2.0000      -1.637536       -44.5596
   3   2.0000      -1.566860       -42.6364
   4   2.0000      -0.806154       -21.9366
   5   2.0000      -0.748090       -20.3566
   6   2.0000      -0.685962       -18.6660
   7   2.0000      -0.675672       -18.3860
   8   2.0000      -0.617107       -16.7923
   9   2.0000      -0.616779       -16.7834
  10   0.0000       0.123830         3.3696
  11   0.0000       0.242022         6.5858
  12   0.0000       0.544288        14.8108
  13   0.0000       0.582573        15.8526
  14   0.0000       1.132987        30.8301

MULLIKEN ATOMIC CHARGES
-----------------------
   0 F :   -0.296441
   1 H :    0.324530
   2 H :    0.311725
   3 F :   -0.339814
Sum of atomic charges:   -0.0000000

LOEWDIN ATOMIC CHARGES
----------------------
   0 F :   -0.002559
   1 H :    0.059632
   2 H :    0.005979
   3 F :   -0.063052

  Mayer bond orders larger than 0.100000
B(  0-F ,  1-H ) :   0.8980 B(  2-H ,  3-F ) :   0.8803

MP2 TOTAL ENERGY:     -200.544358499 Eh
FINAL SINGLE POINT ENERGY      -200.544358499239

DIPOLE MOMENT
-------------

Method             : MP2
Type of density    : Electron Density
Multiplicity       :   1
Level              : Relaxed density
Irrep              :   0
Energy             :     0.0000000000000000 Eh
Basis              : AO
                                X                 Y                 Z
Electronic contribution:      0.037974530       0.007091837      -0.044607242
Nuclear contribution   :      0.930808591      -0.144326131       0.638363219
                        -----------------------------------------
Total Dipole Moment    :      0.968783121      -0.137234294       0.593755977
                        -----------------------------------------
Magnitude (a.u.)       :      1.144517430
Magnitude (Debye)      :      2.909132116

VIBRATIONAL FREQUENCIES
-----------------------

Scaling factor for frequencies =  1.000000000  (already applied!)

     0:       0.00 cm**-1
     1:       0.00 cm**-1
     2:       0.00 cm**-1
     3:       0.00 cm**-1
     4:       0.00 cm**-1
     5:       0.00 cm**-1
     6:     125.15 cm**-1
     7:     209.83 cm**-1
     8:     469.18 cm**-1
     9:     590.15 cm**-1
    10:    4151.02 cm**-1
    11:    4201.03 cm**-1

IR SPECTRUM
-----------

 Mode   freq       eps      Int      T**2         TX        TY        TZ
       cm**-1   L/(mol*cm) km/mol    a.u.
----------------------------------------------------------------------------
  6:    125.15   0.034007  171.86  0.084797  (-0.271370  0.026577 -0.102217)
  7:    209.83   0.019230   97.18  0.028600  ( 0.159159 -0.014507  0.055294)
  8:    469.18   0.054002  272.90  0.035918  ( 0.006741  0.186528  0.032858)
  9:    590.15   0.028196  142.49  0.014910  (-0.019959 -0.021037  0.118612)
 10:   4151.02   0.065061  328.79  0.004891  (-0.069030  0.004195 -0.010409)
 11:   4201.03   0.029912  151.16  0.002222  (-0.014607 -0.007108  0.044250)

--------------------------
THERMOCHEMISTRY AT 298.15K
--------------------------

Temperature         ...   298.15 K
Pressure            ...     1.00 atm
Total Mass          ...    40.01 AMU
Quasi RRHO          ...     True
Cut-Off Frequency   ...     1.00 cm^-1

Throughout the following assumptions are being made:
  (1) The electronic state is orbitally nondegenerate
  (2) There are no thermally accessible electronically excited states
  (3) Hindered rotations indicated by low frequency modes are not
      treated as such but are treated as vibrations and this may
      cause some error
  (4) All equations used are the standard statistical mechanics
      equations for an ideal gas
  (5) All vibrations are strictly harmonic

freq.     125.15  E(vib)   ...       0.43
freq.     209.83  E(vib)   ...       0.34
freq.     469.18  E(vib)   ...       0.16
freq.     590.15  E(vib)   ...       0.10
freq.    4151.02  E(vib)   ...       0.00
freq.    4201.03  E(vib)   ...       0.00

------------
INNER ENERGY
------------

The inner energy is: U= E(el) + E(ZPE) + E(vib) + E(rot) + E(trans)
    E(el)   - is the total energy from the electronic structure calculation
              = E(kin-el) + E(nuc-el) + E(el-el) + E(nuc-nuc)
    E(ZPE)  - the the zero temperature vibrational energy from the frequency calculation
    E(vib)  - the the finite temperature correction to E(ZPE) due to population
              of excited vibrational states
    E(rot)  - is the rotational thermal energy
    E(trans)- is the translational thermal energy

Summary of contributions to the inner energy U:
Electronic energy                ...   -200.54435851 Eh
Zero point energy                ...      0.02220385 Eh      13.93 kcal/mol
Thermal vibrational correction   ...      0.00164654 Eh       1.03 kcal/mol
Thermal rotational correction    ...      0.00141627 Eh       0.89 kcal/mol
Thermal translational correction ...      0.00141627 Eh       0.89 kcal/mol
-----------------------------------------------------------------------
Total thermal energy                   -200.51767557 Eh

Summary of corrections to the electronic energy:
(perhaps to be used in another calculation)
Total thermal correction                  0.00447909 Eh       2.81 kcal/mol
Non-thermal (ZPE) correction              0.02220385 Eh      13.93 kcal/mol
-----------------------------------------------------------------------
Total correction                          0.02668294 Eh      16.74 kcal/mol

--------
ENTHALPY
--------

The enthalpy is H = U + kB*T
                kB is Boltzmann's constant
Total thermal energy              ...   -200.51767557 Eh
Thermal Enthalpy correction       ...      0.00094421 Eh       0.59 kcal/mol
-----------------------------------------------------------------------
Total Enthalpy                    ...   -200.51673136 Eh

Note: Only C1 symmetry has been detected, increase convergence thresholds
      if your molecule has a higher symmetry. Symmetry factor of 1.0 is
      used for the rotational entropy correction.

Note: Rotational entropy computed according to Herzberg
Infrared and Raman Spectra, Chapter V,1, Van Nostrand Reinhold, 1945
Point Group:  C1, Symmetry Number:   1
Rotational constants in cm-1:    19.854321     0.233682     0.230964

Vibrational entropy computed according to the QRRHO of S. Grimme
Chem.Eur.J. 2012 18 9955 using a reference frequency of 100.0 cm-1

-------
ENTROPY
-------

The entropy contributions are T*S = T*(S(el)+S(vib)+S(rot)+S(trans))
     S(el)   - electronic entropy
     S(vib)  - vibrational entropy
     S(rot)  - rotational entropy
     S(trans)- translational entropy
The entropies will be listed as multiplied by the temperature to get
units of energy

Electronic entropy                ...      0.00000000 Eh      0.00 kcal/mol
Vibrational entropy               ...      0.00292857 Eh      1.84 kcal/mol
Rotational entropy                ...      0.00947817 Eh      5.95 kcal/mol
Translational entropy             ...      0.01757395 Eh     11.03 kcal/mol
-----------------------------------------------------------------------
Final entropy term                ...      0.02998069 Eh     18.81 kcal/mol

In case the symmetry of your molecule has not been determined correctly
or in case you have a reason to use a different symmetry number we print
out the resulting rotational entropy values for sn=1,12:

 non-linear molecules -----------------------------------
|  sn= 1 | S(rot)=       0.00947817 Eh      5.95 kcal/mol|
|  sn= 2 | S(rot)=       0.00882372 Eh      5.54 kcal/mol|
|  sn= 3 | S(rot)=       0.00844088 Eh      5.30 kcal/mol|
|  sn= 4 | S(rot)=       0.00816926 Eh      5.13 kcal/mol|
|  sn= 5 | S(rot)=       0.00795857 Eh      4.99 kcal/mol|
|  sn= 6 | S(rot)=       0.00778643 Eh      4.89 kcal/mol|
|  sn= 7 | S(rot)=       0.00764088 Eh      4.79 kcal/mol|
|  sn= 8 | S(rot)=       0.00751480 Eh      4.72 kcal/mol|
|  sn= 9 | S(rot)=       0.00740359 Eh      4.65 kcal/mol|
|  sn=10 | S(rot)=       0.00730412 Eh      4.58 kcal/mol|
|  sn=11 | S(rot)=       0.00721413 Eh      4.53 kcal/mol|
|  sn=12 | S(rot)=       0.00713197 Eh      4.48 kcal/mol|
 linear molecules ---------------------------------------
|  Dinfh | S(rot)=       0.00670950 Eh      4.21 kcal/mol|
|  Cinfv | S(rot)=       0.00736395 Eh      4.62 kcal/mol|
 --------------------------------------------------------

-------------------
GIBBS FREE ENERGY
-------------------

The Gibbs free energy is G = H - T*S

Total enthalpy                    ...   -200.51673136 Eh
Total entropy correction          ...     -0.02998069 Eh    -18.81 kcal/mol
-----------------------------------------------------------------------
Final Gibbs free energy         ...   -200.54671205 Eh

For completeness - the Gibbs free energy minus the electronic energy
G-E(el)                           ...     -0.00235355 Eh     -1.48 kcal/mol

                             ****ORCA TERMINATED NORMALLY****
TOTAL RUN TIME: 0 days 0 hours 5 minutes 36 seconds 965 msec
