                         Program Version 6.1.0  -  RELEASE   -
|  1> ! MP2 6-31G** opt numfreq
|  2>
|  3> * xyzfile 0 1 dimer-input-coordinates.xyz
|  4>
|  5>                          ****END OF INPUT****
 Total Charge           Charge          ....    0
 Multiplicity           Mult            ....    1
 Number of Electrons    NEL             ....   20
MP2 TOTAL ENERGY:     -200.390246690 Eh
FINAL SINGLE POINT ENERGY      -200.390246689569
MP2 TOTAL ENERGY:     -200.391224744 Eh
FINAL SINGLE POINT ENERGY      -200.391224743797
MP2 TOTAL ENERGY:     -200.391770545 Eh
FINAL SINGLE POINT ENERGY      -200.391770544772
MP2 TOTAL ENERGY:     -200.392802736 Eh
FINAL SINGLE POINT ENERGY      -200.392802736010
MP2 TOTAL ENERGY:     -200.393493801 Eh
FINAL SINGLE POINT ENERGY      -200.393493801084
MP2 TOTAL ENERGY:     -200.394604675 Eh
FINAL SINGLE POINT ENERGY      -200.394604675113
FINAL SINGLE POINT ENERGY      -200.387243927432
FINAL SINGLE POINT ENERGY      -200.395750356115
FINAL SINGLE POINT ENERGY      -200.396425962141
MP2 TOTAL ENERGY:     -200.396947419 Eh
FINAL SINGLE POINT ENERGY      -200.396947419103
MP2 TOTAL ENERGY:     -200.397004130 Eh
FINAL SINGLE POINT ENERGY      -200.397004130020
MP2 TOTAL ENERGY:     -200.397022272 Eh
FINAL SINGLE POINT ENERGY      -200.397022271643
MP2 TOTAL ENERGY:     -200.397020782 Eh
FINAL SINGLE POINT ENERGY      -200.397020781977
MP2 TOTAL ENERGY:     -200.397036239 Eh
FINAL SINGLE POINT ENERGY      -200.397036239268
                    ***********************HURRAY********************

CARTESIAN COORDINATES (ANGSTROEM)
---------------------------------
  F     -5.181342    1.169429    0.111296
  H     -4.347551    1.074655    0.505732
  F     -3.012713    2.474256   -0.091719
  H     -3.833049    2.599679   -0.505285

 Multiplicity           Mult            ....    1
 Number of Electrons    NEL             ....   20
 Basis Dimension        Dim             ....   38

ORBITAL ENERGIES
----------------

  NO   OCC          E(Eh)            E(eV)
   0   2.0000     -26.293402      -715.4798
   1   2.0000     -26.289834      -715.3828
   2   2.0000      -1.604199       -43.6525
   3   2.0000      -1.587301       -43.1927
   4   2.0000      -0.770665       -20.9709
   5   2.0000      -0.756302       -20.5800
   6   2.0000      -0.657402       -17.8888
   7   2.0000      -0.650639       -17.7048
   8   2.0000      -0.640729       -17.4351
   9   2.0000      -0.628910       -17.1135
  10   0.0000       0.225877         6.1464
  11   0.0000       0.273734         7.4487
  12   0.0000       1.030269        28.0350
  13   0.0000       1.045701        28.4550
  14   0.0000       1.368125        37.2286

MULLIKEN ATOMIC CHARGES
-----------------------
   0 F :   -0.401712
   1 H :    0.399764
   2 F :   -0.398383
   3 H :    0.400331
Sum of atomic charges:   -0.0000000

LOEWDIN ATOMIC CHARGES
----------------------
   0 F :   -0.195804
   1 H :    0.193023
   2 F :   -0.192577
   3 H :    0.195358

  Mayer bond orders larger than 0.100000
B(  0-F ,  1-H ) :   0.7872 B(  2-F ,  3-H ) :   0.7889

MP2 TOTAL ENERGY:     -200.397036150 Eh
FINAL SINGLE POINT ENERGY      -200.397036150394

DIPOLE MOMENT
-------------

Method             : MP2
Type of density    : Electron Density
Multiplicity       :   1
Level              : Relaxed density
Irrep              :   0
Energy             :     0.0000000000000000 Eh
Basis              : AO
                                X                 Y                 Z
Electronic contribution:      0.004898026       0.001639324       0.000578132
Nuclear contribution   :      0.012615598       0.028735771      -0.017935879
                        -----------------------------------------
Total Dipole Moment    :      0.017513624       0.030375095      -0.017357747
                        -----------------------------------------
Magnitude (a.u.)       :      0.039123712
Magnitude (Debye)      :      0.099444572

VIBRATIONAL FREQUENCIES
-----------------------

Scaling factor for frequencies =  1.000000000  (already applied!)

     0:       0.00 cm**-1
     1:       0.00 cm**-1
     2:       0.00 cm**-1
     3:       0.00 cm**-1
     4:       0.00 cm**-1
     5:       0.00 cm**-1
     6:     144.92 cm**-1
     7:     235.44 cm**-1
     8:     515.36 cm**-1
     9:     758.22 cm**-1
    10:    4079.60 cm**-1
    11:    4112.94 cm**-1

IR SPECTRUM
-----------

 Mode   freq       eps      Int      T**2         TX        TY        TZ
       cm**-1   L/(mol*cm) km/mol    a.u.
----------------------------------------------------------------------------
  6:    144.92   0.115459  583.48  0.248633  ( 0.223107  0.387572 -0.220554)
  7:    235.44   0.000815    4.12  0.001081  (-0.014995 -0.025498  0.014337)
  8:    515.36   0.068618  346.77  0.041550  (-0.059061  0.120615  0.153342)
  9:    758.22   0.000051    0.26  0.000021  ( 0.000519 -0.003433  0.003001)
 10:   4079.60   0.000190    0.96  0.000015  ( 0.003426  0.001679 -0.000028)
 11:   4112.94   0.052844  267.05  0.004009  ( 0.058436 -0.002424  0.024266)

--------------------------
THERMOCHEMISTRY AT 298.15K
--------------------------

Temperature         ...   298.15 K
Pressure            ...     1.00 atm
Total Mass          ...    40.01 AMU
Quasi RRHO          ...     True
Cut-Off Frequency   ...     1.00 cm^-1

Throughout the following assumptions are being made:
  (1) The electronic state is orbitally nondegenerate
  (2) There are no thermally accessible electronically excited states
  (3) Hindered rotations indicated by low frequency modes are not
      treated as such but are treated as vibrations and this may
      cause some error
  (4) All equations used are the standard statistical mechanics
      equations for an ideal gas
  (5) All vibrations are strictly harmonic

freq.     144.92  E(vib)   ...       0.41
freq.     235.44  E(vib)   ...       0.32
freq.     515.36  E(vib)   ...       0.13
freq.     758.22  E(vib)   ...       0.06
freq.    4079.60  E(vib)   ...       0.00
freq.    4112.94  E(vib)   ...       0.00

------------
INNER ENERGY
------------

The inner energy is: U= E(el) + E(ZPE) + E(vib) + E(rot) + E(trans)
    E(el)   - is the total energy from the electronic structure calculation
              = E(kin-el) + E(nuc-el) + E(el-el) + E(nuc-nuc)
    E(ZPE)  - the the zero temperature vibrational energy from the frequency calculation
    E(vib)  - the the finite temperature correction to E(ZPE) due to population
              of excited vibrational states
    E(rot)  - is the rotational thermal energy
    E(trans)- is the translational thermal energy

Summary of contributions to the inner energy U:
Electronic energy                ...   -200.39703625 Eh
Zero point energy                ...      0.02243194 Eh      14.08 kcal/mol
Thermal vibrational correction   ...      0.00146387 Eh       0.92 kcal/mol
Thermal rotational correction    ...      0.00141627 Eh       0.89 kcal/mol
Thermal translational correction ...      0.00141627 Eh       0.89 kcal/mol
-----------------------------------------------------------------------
Total thermal energy                   -200.37030790 Eh

Summary of corrections to the electronic energy:
(perhaps to be used in another calculation)
Total thermal correction                  0.00429641 Eh       2.70 kcal/mol
Non-thermal (ZPE) correction              0.02243194 Eh      14.08 kcal/mol
-----------------------------------------------------------------------
Total correction                          0.02672835 Eh      16.77 kcal/mol

--------
ENTHALPY
--------

The enthalpy is H = U + kB*T
                kB is Boltzmann's constant
Total thermal energy              ...   -200.37030790 Eh
Thermal Enthalpy correction       ...      0.00094421 Eh       0.59 kcal/mol
-----------------------------------------------------------------------
Total Enthalpy                    ...   -200.36936369 Eh

Note: Rotational entropy computed according to Herzberg
Infrared and Raman Spectra, Chapter V,1, Van Nostrand Reinhold, 1945
Point Group:  Cs, Symmetry Number:   1
Rotational constants in cm-1:    17.735146     0.271422     0.267331

Vibrational entropy computed according to the QRRHO of S. Grimme
Chem.Eur.J. 2012 18 9955 using a reference frequency of 100.0 cm-1

-------
ENTROPY
-------

The entropy contributions are T*S = T*(S(el)+S(vib)+S(rot)+S(trans))
     S(el)   - electronic entropy
     S(vib)  - vibrational entropy
     S(rot)  - rotational entropy
     S(trans)- translational entropy
The entropies will be listed as multiplied by the temperature to get
units of energy

Electronic entropy                ...      0.00000000 Eh      0.00 kcal/mol
Vibrational entropy               ...      0.00256539 Eh      1.61 kcal/mol
Rotational entropy                ...      0.00939175 Eh      5.89 kcal/mol
Translational entropy             ...      0.01757395 Eh     11.03 kcal/mol
-----------------------------------------------------------------------
Final entropy term                ...      0.02953109 Eh     18.53 kcal/mol

In case the symmetry of your molecule has not been determined correctly
or in case you have a reason to use a different symmetry number we print
out the resulting rotational entropy values for sn=1,12:

 non-linear molecules -----------------------------------
|  sn= 1 | S(rot)=       0.00939175 Eh      5.89 kcal/mol|
|  sn= 2 | S(rot)=       0.00873729 Eh      5.48 kcal/mol|
|  sn= 3 | S(rot)=       0.00835446 Eh      5.24 kcal/mol|
|  sn= 4 | S(rot)=       0.00808284 Eh      5.07 kcal/mol|
|  sn= 5 | S(rot)=       0.00787215 Eh      4.94 kcal/mol|
|  sn= 6 | S(rot)=       0.00770000 Eh      4.83 kcal/mol|
|  sn= 7 | S(rot)=       0.00755446 Eh      4.74 kcal/mol|
|  sn= 8 | S(rot)=       0.00742838 Eh      4.66 kcal/mol|
|  sn= 9 | S(rot)=       0.00731717 Eh      4.59 kcal/mol|
|  sn=10 | S(rot)=       0.00721769 Eh      4.53 kcal/mol|
|  sn=11 | S(rot)=       0.00712770 Eh      4.47 kcal/mol|
|  sn=12 | S(rot)=       0.00704555 Eh      4.42 kcal/mol|
 linear molecules ---------------------------------------
|  Dinfh | S(rot)=       0.00657143 Eh      4.12 kcal/mol|
|  Cinfv | S(rot)=       0.00722589 Eh      4.53 kcal/mol|
 --------------------------------------------------------

-------------------
GIBBS FREE ENERGY
-------------------

The Gibbs free energy is G = H - T*S

Total enthalpy                    ...   -200.36936369 Eh
Total entropy correction          ...     -0.02953109 Eh    -18.53 kcal/mol
-----------------------------------------------------------------------
Final Gibbs free energy         ...   -200.39889477 Eh

For completeness - the Gibbs free energy minus the electronic energy
G-E(el)                           ...     -0.00185853 Eh     -1.17 kcal/mol

                             ****ORCA TERMINATED NORMALLY****
TOTAL RUN TIME: 0 days 0 hours 0 minutes 16 seconds 221 msec
