                         Program Version 6.1.0  -  RELEASE   -
|  1> ! MP2 6-31G** opt numfreq
|  2>
|  3> * xyzfile 0 1 dimer-input-coordinates.xyz
|  4>
|  5>                          ****END OF INPUT****
 Total Charge           Charge          ....    0
 Multiplicity           Mult            ....    1
 Number of Electrons    NEL             ....   20
MP2 TOTAL ENERGY:     -200.389998696 Eh
FINAL SINGLE POINT ENERGY      -200.389998696101
MP2 TOTAL ENERGY:     -200.392466104 Eh
FINAL SINGLE POINT ENERGY      -200.392466103576
MP2 TOTAL ENERGY:     -200.393137210 Eh
FINAL SINGLE POINT ENERGY      -200.393137210160
MP2 TOTAL ENERGY:     -200.393369640 Eh
FINAL SINGLE POINT ENERGY      -200.393369640274
MP2 TOTAL ENERGY:     -200.393499201 Eh
FINAL SINGLE POINT ENERGY      -200.393499201170
MP2 TOTAL ENERGY:     -200.393684079 Eh
FINAL SINGLE POINT ENERGY      -200.393684078810
FINAL SINGLE POINT ENERGY      -200.393453776514
FINAL SINGLE POINT ENERGY      -200.394461416748
FINAL SINGLE POINT ENERGY      -200.394620401977
FINAL SINGLE POINT ENERGY      -200.394762382649
FINAL SINGLE POINT ENERGY      -200.396792810763
FINAL SINGLE POINT ENERGY      -200.396838257891
FINAL SINGLE POINT ENERGY      -200.396900753707
FINAL SINGLE POINT ENERGY      -200.396898255257
MP2 TOTAL ENERGY:     -200.397002378 Eh
FINAL SINGLE POINT ENERGY      -200.397002377841
MP2 TOTAL ENERGY:     -200.397027203 Eh
FINAL SINGLE POINT ENERGY      -200.397027203414
MP2 TOTAL ENERGY:     -200.397031526 Eh
FINAL SINGLE POINT ENERGY      -200.397031525732
MP2 TOTAL ENERGY:     -200.397036706 Eh
FINAL SINGLE POINT ENERGY      -200.397036705611
MP2 TOTAL ENERGY:     -200.397037145 Eh
FINAL SINGLE POINT ENERGY      -200.397037144714
                    ***********************HURRAY********************

CARTESIAN COORDINATES (ANGSTROEM)
---------------------------------
  F     -0.998697    2.413005   -0.005333
  H     -1.592983    2.309767    0.698875
  H     -2.940408    2.582106   -0.612984
  F     -3.534652    2.477196    0.091008

 Multiplicity           Mult            ....    1
 Number of Electrons    NEL             ....   20
 Basis Dimension        Dim             ....   38

ORBITAL ENERGIES
----------------

  NO   OCC          E(Eh)            E(eV)
   0   2.0000     -26.291634      -715.4317
   1   2.0000     -26.291621      -715.4314
   2   2.0000      -1.604050       -43.6484
   3   2.0000      -1.587470       -43.1973
   4   2.0000      -0.770598       -20.9690
   5   2.0000      -0.756363       -20.5817
   6   2.0000      -0.657382       -17.8883
   7   2.0000      -0.650374       -17.6976
   8   2.0000      -0.641011       -17.4428
   9   2.0000      -0.628968       -17.1151
  10   0.0000       0.226052         6.1512
  11   0.0000       0.273549         7.4437
  12   0.0000       1.030318        28.0364
  13   0.0000       1.045825        28.4583
  14   0.0000       1.367878        37.2218

MULLIKEN ATOMIC CHARGES
-----------------------
   0 F :   -0.400051
   1 H :    0.400045
   2 H :    0.400045
   3 F :   -0.400039
Sum of atomic charges:    0.0000000

LOEWDIN ATOMIC CHARGES
----------------------
   0 F :   -0.194196
   1 H :    0.194187
   2 H :    0.194192
   3 F :   -0.194183

  Mayer bond orders larger than 0.100000
B(  0-F ,  1-H ) :   0.7880 B(  2-H ,  3-F ) :   0.7880

MP2 TOTAL ENERGY:     -200.397037255 Eh
FINAL SINGLE POINT ENERGY      -200.397037254606

DIPOLE MOMENT
-------------

Method             : MP2
Type of density    : Electron Density
Multiplicity       :   1
Level              : Relaxed density
Irrep              :   0
Energy             :     0.0000000000000000 Eh
Basis              : AO
                                X                 Y                 Z
Electronic contribution:     -0.000023817      -0.000262168      -0.000040580
Nuclear contribution   :     -0.000039043       0.001568012       0.000202597
                        -----------------------------------------
Total Dipole Moment    :     -0.000062860       0.001305844       0.000162017
                        -----------------------------------------
Magnitude (a.u.)       :      0.001317357
Magnitude (Debye)      :      0.003348455

VIBRATIONAL FREQUENCIES
-----------------------

Scaling factor for frequencies =  1.000000000  (already applied!)

     0:       0.00 cm**-1
     1:       0.00 cm**-1
     2:       0.00 cm**-1
     3:       0.00 cm**-1
     4:       0.00 cm**-1
     5:       0.00 cm**-1
     6:     155.38 cm**-1
     7:     235.16 cm**-1
     8:     514.03 cm**-1
     9:     759.72 cm**-1
    10:    4079.59 cm**-1
    11:    4112.74 cm**-1

IR SPECTRUM
-----------

 Mode   freq       eps      Int      T**2         TX        TY        TZ
       cm**-1   L/(mol*cm) km/mol    a.u.
----------------------------------------------------------------------------
  6:    155.38   0.116649  589.50  0.234269  ( 0.404113 -0.059058  0.259758)
  7:    235.16   0.000001    0.00  0.000001  (-0.000783 -0.000031 -0.000508)
  8:    514.03   0.068529  346.32  0.041603  (-0.006869 -0.200727 -0.035559)
  9:    759.72   0.000000    0.00  0.000000  (-0.000002  0.000235  0.000024)
 10:   4079.59   0.000000    0.00  0.000000  ( 0.000042 -0.000051 -0.000043)
 11:   4112.74   0.052893  267.30  0.004013  (-0.045298 -0.006195  0.043853)

--------------------------
THERMOCHEMISTRY AT 298.15K
--------------------------

Temperature         ...   298.15 K
Pressure            ...     1.00 atm
Total Mass          ...    40.01 AMU
Quasi RRHO          ...     True
Cut-Off Frequency   ...     1.00 cm^-1

Throughout the following assumptions are being made:
  (1) The electronic state is orbitally nondegenerate
  (2) There are no thermally accessible electronically excited states
  (3) Hindered rotations indicated by low frequency modes are not
      treated as such but are treated as vibrations and this may
      cause some error
  (4) All equations used are the standard statistical mechanics
      equations for an ideal gas
  (5) All vibrations are strictly harmonic

freq.     155.38  E(vib)   ...       0.40
freq.     235.16  E(vib)   ...       0.32
freq.     514.03  E(vib)   ...       0.13
freq.     759.72  E(vib)   ...       0.06
freq.    4079.59  E(vib)   ...       0.00
freq.    4112.74  E(vib)   ...       0.00

------------
INNER ENERGY
------------

The inner energy is: U= E(el) + E(ZPE) + E(vib) + E(rot) + E(trans)
    E(el)   - is the total energy from the electronic structure calculation
              = E(kin-el) + E(nuc-el) + E(el-el) + E(nuc-nuc)
    E(ZPE)  - the the zero temperature vibrational energy from the frequency calculation
    E(vib)  - the the finite temperature correction to E(ZPE) due to population
              of excited vibrational states
    E(rot)  - is the rotational thermal energy
    E(trans)- is the translational thermal energy

Summary of contributions to the inner energy U:
Electronic energy                ...   -200.39703725 Eh
Zero point energy                ...      0.02245506 Eh      14.09 kcal/mol
Thermal vibrational correction   ...      0.00144654 Eh       0.91 kcal/mol
Thermal rotational correction    ...      0.00141627 Eh       0.89 kcal/mol
Thermal translational correction ...      0.00141627 Eh       0.89 kcal/mol
-----------------------------------------------------------------------
Total thermal energy                   -200.37030311 Eh

Summary of corrections to the electronic energy:
(perhaps to be used in another calculation)
Total thermal correction                  0.00427908 Eh       2.69 kcal/mol
Non-thermal (ZPE) correction              0.02245506 Eh      14.09 kcal/mol
-----------------------------------------------------------------------
Total correction                          0.02673414 Eh      16.78 kcal/mol

--------
ENTHALPY
--------

The enthalpy is H = U + kB*T
                kB is Boltzmann's constant
Total thermal energy              ...   -200.37030311 Eh
Thermal Enthalpy correction       ...      0.00094421 Eh       0.59 kcal/mol
-----------------------------------------------------------------------
Total Enthalpy                    ...   -200.36935890 Eh

Note: Only C1 symmetry has been detected, increase convergence thresholds
      if your molecule has a higher symmetry. Symmetry factor of 1.0 is
      used for the rotational entropy correction.

Note: Rotational entropy computed according to Herzberg
Infrared and Raman Spectra, Chapter V,1, Van Nostrand Reinhold, 1945
Point Group:  C1, Symmetry Number:   1
Rotational constants in cm-1:    17.736715     0.271524     0.267430

Vibrational entropy computed according to the QRRHO of S. Grimme
Chem.Eur.J. 2012 18 9955 using a reference frequency of 100.0 cm-1

-------
ENTROPY
-------

The entropy contributions are T*S = T*(S(el)+S(vib)+S(rot)+S(trans))
     S(el)   - electronic entropy
     S(vib)  - vibrational entropy
     S(rot)  - rotational entropy
     S(trans)- translational entropy
The entropies will be listed as multiplied by the temperature to get
units of energy

Electronic entropy                ...      0.00000000 Eh      0.00 kcal/mol
Vibrational entropy               ...      0.00251323 Eh      1.58 kcal/mol
Rotational entropy                ...      0.00939136 Eh      5.89 kcal/mol
Translational entropy             ...      0.01757395 Eh     11.03 kcal/mol
-----------------------------------------------------------------------
Final entropy term                ...      0.02947854 Eh     18.50 kcal/mol

In case the symmetry of your molecule has not been determined correctly
or in case you have a reason to use a different symmetry number we print
out the resulting rotational entropy values for sn=1,12:

 non-linear molecules -----------------------------------
|  sn= 1 | S(rot)=       0.00939136 Eh      5.89 kcal/mol|
|  sn= 2 | S(rot)=       0.00873690 Eh      5.48 kcal/mol|
|  sn= 3 | S(rot)=       0.00835407 Eh      5.24 kcal/mol|
|  sn= 4 | S(rot)=       0.00808244 Eh      5.07 kcal/mol|
|  sn= 5 | S(rot)=       0.00787176 Eh      4.94 kcal/mol|
|  sn= 6 | S(rot)=       0.00769961 Eh      4.83 kcal/mol|
|  sn= 7 | S(rot)=       0.00755407 Eh      4.74 kcal/mol|
|  sn= 8 | S(rot)=       0.00742799 Eh      4.66 kcal/mol|
|  sn= 9 | S(rot)=       0.00731678 Eh      4.59 kcal/mol|
|  sn=10 | S(rot)=       0.00721730 Eh      4.53 kcal/mol|
|  sn=11 | S(rot)=       0.00712731 Eh      4.47 kcal/mol|
|  sn=12 | S(rot)=       0.00704515 Eh      4.42 kcal/mol|
 linear molecules ---------------------------------------
|  Dinfh | S(rot)=       0.00657109 Eh      4.12 kcal/mol|
|  Cinfv | S(rot)=       0.00722554 Eh      4.53 kcal/mol|
 --------------------------------------------------------

-------------------
GIBBS FREE ENERGY
-------------------

The Gibbs free energy is G = H - T*S

Total enthalpy                    ...   -200.36935890 Eh
Total entropy correction          ...     -0.02947854 Eh    -18.50 kcal/mol
-----------------------------------------------------------------------
Final Gibbs free energy         ...   -200.39883744 Eh

For completeness - the Gibbs free energy minus the electronic energy
G-E(el)                           ...     -0.00180019 Eh     -1.13 kcal/mol

                             ****ORCA TERMINATED NORMALLY****
TOTAL RUN TIME: 0 days 0 hours 0 minutes 23 seconds 782 msec
