                         Program Version 6.1.0  -  RELEASE   -
|  1> ! MP2 6-31G(d,p) optts numfreq irc
|  2>
|  3> %pal
|  4>   nprocs=9
|  5> end
|  6>
|  7> * xyz 0 1
|  8> C     -3.532497    1.667349   -0.155022
|  9> C     -2.770872    0.543186   -0.845226
| 10> C     -1.422876    2.941608   -0.841780
| 11> C     -1.335170    0.443172   -0.338395
| 12> H     -0.770041   -0.232092   -0.991589
| 13> C     -2.822507    3.020242   -0.239812
| 14> H     -3.676713    1.406277    0.901022
| 15> C     -0.619410    1.792377   -0.246269
| 16> H     -0.897158    3.889141   -0.678450
| 17> H     -0.407301    2.012226    0.807054
| 18> H     -2.766456    0.715361   -1.928305
| 19> H     -4.536877    1.751142   -0.586141
| 20> H     -3.285908   -0.410515   -0.685305
| 21> H     -1.332053   -0.025340    0.653815
| 22> H      0.354838    1.726779   -0.744542
| 23> H     -1.497163    2.811896   -1.928470
| 24> H     -3.427783    3.719560   -0.828481
| 25> H     -2.761072    3.449374    0.767724
| 26> *
| 27>
| 28>
| 29>                          ****END OF INPUT****
 Total Charge           Charge          ....    0
 Multiplicity           Mult            ....    1
 Number of Electrons    NEL             ....   48
MP2 TOTAL ENERGY:     -235.068300407 Eh
FINAL SINGLE POINT ENERGY      -235.068300406998
MP2 TOTAL ENERGY:     -235.068112054 Eh
FINAL SINGLE POINT ENERGY      -235.068112053951
MP2 TOTAL ENERGY:     -235.068628826 Eh
FINAL SINGLE POINT ENERGY      -235.068628825507
MP2 TOTAL ENERGY:     -235.069089404 Eh
FINAL SINGLE POINT ENERGY      -235.069089403714
MP2 TOTAL ENERGY:     -235.069248926 Eh
FINAL SINGLE POINT ENERGY      -235.069248925877
MP2 TOTAL ENERGY:     -235.069458690 Eh
FINAL SINGLE POINT ENERGY      -235.069458689506
MP2 TOTAL ENERGY:     -235.069483870 Eh
FINAL SINGLE POINT ENERGY      -235.069483869520
MP2 TOTAL ENERGY:     -235.069484260 Eh
FINAL SINGLE POINT ENERGY      -235.069484260298
MP2 TOTAL ENERGY:     -235.069489390 Eh
FINAL SINGLE POINT ENERGY      -235.069489390228
MP2 TOTAL ENERGY:     -235.069488708 Eh
FINAL SINGLE POINT ENERGY      -235.069488707595
MP2 TOTAL ENERGY:     -235.069490381 Eh
FINAL SINGLE POINT ENERGY      -235.069490381263
                    ***********************HURRAY********************

CARTESIAN COORDINATES (ANGSTROEM)
---------------------------------
  C     -3.553094    1.655633   -0.181506
  C     -2.749377    0.555912   -0.876620
  C     -1.446226    2.930065   -0.872795
  C     -1.344700    0.445659   -0.281265
  H     -0.770788   -0.301812   -0.832643
  C     -2.809174    3.015245   -0.183455
  H     -3.745562    1.341509    0.847509
  C     -0.600829    1.805179   -0.273924
  H     -0.921698    3.883355   -0.776959
  H     -0.342968    2.079609    0.752143
  H     -2.682694    0.766463   -1.946799
  H     -4.530607    1.754365   -0.657675
  H     -3.268023   -0.400971   -0.784462
  H     -1.434281    0.068338    0.740575
  H      0.344367    1.726916   -0.814771
  H     -1.582438    2.761059   -1.943727
  H     -3.416638    3.783338   -0.666256
  H     -2.652290    3.351881    0.844458

 Multiplicity           Mult            ....    1
 Number of Electrons    NEL             ....   48
 Basis Dimension        Dim             ....  144

ORBITAL ENERGIES
----------------

  NO   OCC          E(Eh)            E(eV)
   0   2.0000     -11.211170      -305.0714
   1   2.0000     -11.211011      -305.0671
   2   2.0000     -11.210812      -305.0617
   3   2.0000     -11.210475      -305.0525
   4   2.0000     -11.210080      -305.0418
   5   2.0000     -11.209943      -305.0381
   6   2.0000      -1.108267       -30.1575
   7   2.0000      -0.997591       -27.1458
   8   2.0000      -0.992329       -27.0026
   9   2.0000      -0.835189       -22.7267
  10   2.0000      -0.827965       -22.5301
  11   2.0000      -0.719339       -19.5742
  12   2.0000      -0.652306       -17.7502
  13   2.0000      -0.643934       -17.5223
  14   2.0000      -0.590422       -16.0662
  15   2.0000      -0.555885       -15.1264
  16   2.0000      -0.516207       -14.0467
  17   2.0000      -0.513421       -13.9709
  18   2.0000      -0.504470       -13.7273
  19   2.0000      -0.500740       -13.6258
  20   2.0000      -0.483323       -13.1519
  21   2.0000      -0.428065       -11.6482
  22   2.0000      -0.425886       -11.5889
  23   2.0000      -0.420595       -11.4450
  24   0.0000       0.216497         5.8912
  25   0.0000       0.250848         6.8259
  26   0.0000       0.281371         7.6565
  27   0.0000       0.285627         7.7723
  28   0.0000       0.292382         7.9561

MULLIKEN ATOMIC CHARGES
-----------------------
   0 C :   -0.211169
   1 C :   -0.214315
   2 C :   -0.214283
   3 C :   -0.211167
   4 H :    0.107977
   5 C :   -0.211214
   6 H :    0.105474
   7 C :   -0.211207
   8 H :    0.105094
   9 H :    0.105459
  10 H :    0.104603
  11 H :    0.108043
  12 H :    0.105098
  13 H :    0.105514
  14 H :    0.108039
  15 H :    0.104599
  16 H :    0.107959
  17 H :    0.105495
Sum of atomic charges:    0.0000000

LOEWDIN ATOMIC CHARGES
----------------------
   0 C :   -0.128028
   1 C :   -0.126652
   2 C :   -0.126646
   3 C :   -0.127968
   4 H :    0.065206
   5 C :   -0.127966
   6 H :    0.062866
   7 C :   -0.128023
   8 H :    0.066067
   9 H :    0.062861
  10 H :    0.060395
  11 H :    0.065244
  12 H :    0.066071
  13 H :    0.062893
  14 H :    0.065232
  15 H :    0.060384
  16 H :    0.065185
  17 H :    0.062879

  Mayer bond orders larger than 0.100000
B(  0-C ,  1-C ) :   0.9396 B(  0-C ,  5-C ) :   0.9129 B(  0-C ,  6-H ) :   0.9326
B(  0-C , 11-H ) :   0.9346 B(  1-C ,  3-C ) :   0.9395 B(  1-C , 10-H ) :   0.9279
B(  1-C , 12-H ) :   0.9295 B(  2-C ,  5-C ) :   0.9395 B(  2-C ,  7-C ) :   0.9396
B(  2-C ,  8-H ) :   0.9295 B(  2-C , 15-H ) :   0.9279 B(  3-C ,  4-H ) :   0.9346
B(  3-C ,  7-C ) :   0.9129 B(  3-C , 13-H ) :   0.9326 B(  5-C , 16-H ) :   0.9346
B(  5-C , 17-H ) :   0.9326 B(  7-C ,  9-H ) :   0.9325 B(  7-C , 14-H ) :   0.9346

MP2 TOTAL ENERGY:     -235.069491886 Eh
FINAL SINGLE POINT ENERGY      -235.069491886434

DIPOLE MOMENT
-------------

Method             : MP2
Type of density    : Electron Density
Multiplicity       :   1
Level              : Relaxed density
Irrep              :   0
Energy             :     0.0000000000000000 Eh
Basis              : AO
                                X                 Y                 Z
Electronic contribution:     -0.002926868       0.001265332      -0.092102715
Nuclear contribution   :      0.002554354      -0.001071786       0.080752680
                        -----------------------------------------
Total Dipole Moment    :     -0.000372514       0.000193546      -0.011350035
                        -----------------------------------------
Magnitude (a.u.)       :      0.011357796
Magnitude (Debye)      :      0.028869223

VIBRATIONAL FREQUENCIES
-----------------------

Scaling factor for frequencies =  1.000000000  (already applied!)

     0:       0.00 cm**-1
     1:       0.00 cm**-1
     2:       0.00 cm**-1
     3:       0.00 cm**-1
     4:       0.00 cm**-1
     5:       0.00 cm**-1
     6:    -126.46 cm**-1  ***imaginary mode***
     7:     207.71 cm**-1
     8:     312.87 cm**-1
     9:     457.13 cm**-1
    10:     461.26 cm**-1
    11:     550.75 cm**-1
    12:     795.86 cm**-1
    13:     799.37 cm**-1
    14:     834.21 cm**-1
    15:     898.16 cm**-1
    16:     899.75 cm**-1
    17:     900.52 cm**-1
    18:     993.46 cm**-1
    19:    1031.04 cm**-1
    20:    1069.16 cm**-1
    21:    1103.89 cm**-1
    22:    1137.63 cm**-1
    23:    1170.25 cm**-1
    24:    1190.01 cm**-1
    25:    1202.00 cm**-1
    26:    1285.65 cm**-1
    27:    1304.04 cm**-1
    28:    1339.09 cm**-1
    29:    1345.12 cm**-1
    30:    1369.67 cm**-1
    31:    1405.49 cm**-1
    32:    1410.48 cm**-1
    33:    1413.57 cm**-1
    34:    1423.49 cm**-1
    35:    1426.98 cm**-1
    36:    1532.44 cm**-1
    37:    1535.15 cm**-1
    38:    1543.67 cm**-1
    39:    1556.18 cm**-1
    40:    1560.54 cm**-1
    41:    1573.70 cm**-1
    42:    3118.59 cm**-1
    43:    3119.98 cm**-1
    44:    3122.60 cm**-1
    45:    3129.31 cm**-1
    46:    3131.37 cm**-1
    47:    3134.29 cm**-1
    48:    3165.71 cm**-1
    49:    3168.04 cm**-1
    50:    3178.39 cm**-1
    51:    3180.21 cm**-1
    52:    3187.66 cm**-1
    53:    3196.65 cm**-1

IR SPECTRUM
-----------

 Mode   freq       eps      Int      T**2         TX        TY        TZ
       cm**-1   L/(mol*cm) km/mol    a.u.
----------------------------------------------------------------------------
  7:    207.71   0.000003    0.02  0.000005  ( 0.000830  0.002062 -0.000038)
  8:    312.87   0.000001    0.00  0.000001  (-0.000307 -0.000157  0.000730)
  9:    457.13   0.000043    0.22  0.000029  ( 0.000333 -0.000100  0.005389)
 10:    461.26   0.000000    0.00  0.000000  ( 0.000074 -0.000076  0.000425)
 11:    550.75   0.000171    0.86  0.000097  ( 0.004745  0.008627  0.000059)
 12:    795.86   0.000205    1.04  0.000080  ( 0.007900 -0.004141 -0.000961)
 13:    799.37   0.000298    1.51  0.000116  (-0.000894  0.000544 -0.010736)
 14:    834.21   0.000011    0.05  0.000004  (-0.000068  0.000033 -0.002016)
 15:    898.16   0.000001    0.00  0.000000  (-0.000447  0.000203  0.000092)
 16:    899.75   0.000216    1.09  0.000075  (-0.005524  0.006650  0.000280)
 17:    900.52   0.000279    1.41  0.000097  ( 0.006889  0.007008 -0.000077)
 18:    993.46   0.000000    0.00  0.000000  (-0.000087 -0.000259 -0.000206)
 19:   1031.04   0.000220    1.11  0.000066  ( 0.003866  0.007177  0.000030)
 20:   1069.16   0.000000    0.00  0.000000  ( 0.000140  0.000144 -0.000050)
 21:   1103.89   0.000054    0.27  0.000015  ( 0.000010  0.000256 -0.003897)
 22:   1137.63   0.000004    0.02  0.000001  ( 0.000988 -0.000041 -0.000059)
 23:   1170.25   0.000006    0.03  0.000002  (-0.001246  0.000250  0.000054)
 24:   1190.01   0.000361    1.82  0.000095  ( 0.004539  0.008602 -0.000030)
 25:   1202.00   0.000030    0.15  0.000008  ( 0.002520 -0.001193 -0.000112)
 26:   1285.65   0.000000    0.00  0.000000  (-0.000093 -0.000241  0.000166)
 27:   1304.04   0.000000    0.00  0.000000  ( 0.000153  0.000217  0.000019)
 28:   1339.09   0.000029    0.14  0.000007  ( 0.000400  0.000274  0.002535)
 29:   1345.12   0.000293    1.48  0.000068  ( 0.003856  0.007285 -0.000024)
 30:   1369.67   0.000000    0.00  0.000000  (-0.000158 -0.000146 -0.000161)
 31:   1405.49   0.000046    0.23  0.000010  (-0.000282 -0.000545  0.003124)
 32:   1410.48   0.000568    2.87  0.000126  ( 0.005653  0.009674  0.000139)
 33:   1413.57   0.000118    0.60  0.000026  ( 0.003707 -0.003509 -0.000193)
 34:   1423.49   0.000004    0.02  0.000001  ( 0.000871 -0.000261  0.000042)
 35:   1426.98   0.000542    2.74  0.000119  ( 0.009699 -0.004931 -0.000394)
 36:   1532.44   0.000000    0.00  0.000000  (-0.000085  0.000007 -0.000025)
 37:   1535.15   0.000088    0.44  0.000018  ( 0.002146  0.003641  0.000003)
 38:   1543.67   0.000275    1.39  0.000056  (-0.003548 -0.006553  0.000023)
 39:   1556.18   0.000469    2.37  0.000094  (-0.008513  0.004651  0.000213)
 40:   1560.54   0.001731    8.75  0.000346  ( 0.000458 -0.000320  0.018597)
 41:   1573.70   0.000001    0.00  0.000000  ( 0.000107 -0.000044 -0.000331)
 42:   3118.59   0.007867   39.76  0.000787  (-0.013359 -0.024657  0.000870)
 43:   3119.98   0.000013    0.06  0.000001  (-0.000298 -0.000339 -0.001039)
 44:   3122.60   0.004085   20.64  0.000408  (-0.010242 -0.017417  0.000172)
 45:   3129.31   0.008444   42.67  0.000842  (-0.005630  0.002362 -0.028368)
 46:   3131.37   0.013275   67.09  0.001323  (-0.031381  0.017676  0.005070)
 47:   3134.29   0.000036    0.18  0.000004  (-0.000351  0.000194  0.001843)
 48:   3165.71   0.006906   34.90  0.000681  ( 0.012559  0.022869  0.000162)
 49:   3168.04   0.000002    0.01  0.000000  (-0.000047 -0.000464 -0.000030)
 50:   3178.39   0.000022    0.11  0.000002  ( 0.000026 -0.000526 -0.001366)
 51:   3180.21   0.006369   32.19  0.000625  ( 0.011597  0.022137 -0.000656)
 52:   3187.66   0.007781   39.32  0.000762  (-0.024318  0.012834  0.002385)
 53:   3196.65   0.020958  105.91  0.002046  ( 0.002275 -0.000864  0.045167)

--------------------------
THERMOCHEMISTRY AT 298.15K
--------------------------

Temperature         ...   298.15 K
Pressure            ...     1.00 atm
Total Mass          ...    84.16 AMU
Quasi RRHO          ...     True
Cut-Off Frequency   ...     1.00 cm^-1

Throughout the following assumptions are being made:
  (1) The electronic state is orbitally nondegenerate
  (2) There are no thermally accessible electronically excited states
  (3) Hindered rotations indicated by low frequency modes are not
      treated as such but are treated as vibrations and this may
      cause some error
  (4) All equations used are the standard statistical mechanics
      equations for an ideal gas
  (5) All vibrations are strictly harmonic

freq.     207.71  E(vib)   ...       0.34
freq.     312.87  E(vib)   ...       0.25
freq.     457.13  E(vib)   ...       0.16
freq.     461.26  E(vib)   ...       0.16
freq.     550.75  E(vib)   ...       0.12
freq.     795.86  E(vib)   ...       0.05
freq.     799.37  E(vib)   ...       0.05
freq.     834.21  E(vib)   ...       0.04
freq.     898.16  E(vib)   ...       0.03
freq.     899.75  E(vib)   ...       0.03
freq.     900.52  E(vib)   ...       0.03
freq.     993.46  E(vib)   ...       0.02
freq.    1031.04  E(vib)   ...       0.02
freq.    1069.16  E(vib)   ...       0.02
freq.    1103.89  E(vib)   ...       0.02
freq.    1137.63  E(vib)   ...       0.01
freq.    1170.25  E(vib)   ...       0.01
freq.    1190.01  E(vib)   ...       0.01
freq.    1202.00  E(vib)   ...       0.01
freq.    1285.65  E(vib)   ...       0.01
freq.    1304.04  E(vib)   ...       0.01
freq.    1339.09  E(vib)   ...       0.01
freq.    1345.12  E(vib)   ...       0.01
freq.    1369.67  E(vib)   ...       0.01
freq.    1405.49  E(vib)   ...       0.00
freq.    1410.48  E(vib)   ...       0.00
freq.    1413.57  E(vib)   ...       0.00
freq.    1423.49  E(vib)   ...       0.00
freq.    1426.98  E(vib)   ...       0.00
freq.    1532.44  E(vib)   ...       0.00
freq.    1535.15  E(vib)   ...       0.00
freq.    1543.67  E(vib)   ...       0.00
freq.    1556.18  E(vib)   ...       0.00
freq.    1560.54  E(vib)   ...       0.00
freq.    1573.70  E(vib)   ...       0.00
freq.    3118.59  E(vib)   ...       0.00
freq.    3119.98  E(vib)   ...       0.00
freq.    3122.60  E(vib)   ...       0.00
freq.    3129.31  E(vib)   ...       0.00
freq.    3131.37  E(vib)   ...       0.00
freq.    3134.29  E(vib)   ...       0.00
freq.    3165.71  E(vib)   ...       0.00
freq.    3168.04  E(vib)   ...       0.00
freq.    3178.39  E(vib)   ...       0.00
freq.    3180.21  E(vib)   ...       0.00
freq.    3187.66  E(vib)   ...       0.00
freq.    3196.65  E(vib)   ...       0.00

------------
INNER ENERGY
------------

The inner energy is: U= E(el) + E(ZPE) + E(vib) + E(rot) + E(trans)
    E(el)   - is the total energy from the electronic structure calculation
              = E(kin-el) + E(nuc-el) + E(el-el) + E(nuc-nuc)
    E(ZPE)  - the the zero temperature vibrational energy from the frequency calculation
    E(vib)  - the the finite temperature correction to E(ZPE) due to population
              of excited vibrational states
    E(rot)  - is the rotational thermal energy
    E(trans)- is the translational thermal energy

Summary of contributions to the inner energy U:
Electronic energy                ...   -235.06949189 Eh
Zero point energy                ...      0.17512975 Eh     109.90 kcal/mol
Thermal vibrational correction   ...      0.00235072 Eh       1.48 kcal/mol
Thermal rotational correction    ...      0.00141627 Eh       0.89 kcal/mol
Thermal translational correction ...      0.00141627 Eh       0.89 kcal/mol
-----------------------------------------------------------------------
Total thermal energy                   -234.88917888 Eh

Summary of corrections to the electronic energy:
(perhaps to be used in another calculation)
Total thermal correction                  0.00518326 Eh       3.25 kcal/mol
Non-thermal (ZPE) correction              0.17512975 Eh     109.90 kcal/mol
-----------------------------------------------------------------------
Total correction                          0.18031301 Eh     113.15 kcal/mol

--------
ENTHALPY
--------

The enthalpy is H = U + kB*T
                kB is Boltzmann's constant
Total thermal energy              ...   -234.88917888 Eh
Thermal Enthalpy correction       ...      0.00094421 Eh       0.59 kcal/mol
-----------------------------------------------------------------------
Total Enthalpy                    ...   -234.88823467 Eh

Note: Only C1 symmetry has been detected, increase convergence thresholds
      if your molecule has a higher symmetry. Symmetry factor of 1.0 is
      used for the rotational entropy correction.

Note: Rotational entropy computed according to Herzberg
Infrared and Raman Spectra, Chapter V,1, Van Nostrand Reinhold, 1945
Point Group:  C1, Symmetry Number:   1
Rotational constants in cm-1:     0.145032     0.140654     0.084265

Vibrational entropy computed according to the QRRHO of S. Grimme
Chem.Eur.J. 2012 18 9955 using a reference frequency of 100.0 cm-1

-------
ENTROPY
-------

The entropy contributions are T*S = T*(S(el)+S(vib)+S(rot)+S(trans))
     S(el)   - electronic entropy
     S(vib)  - vibrational entropy
     S(rot)  - rotational entropy
     S(trans)- translational entropy
The entropies will be listed as multiplied by the temperature to get
units of energy

Electronic entropy                ...      0.00000000 Eh      0.00 kcal/mol
Vibrational entropy               ...      0.00345883 Eh      2.17 kcal/mol
Rotational entropy                ...      0.01251616 Eh      7.85 kcal/mol
Translational entropy             ...      0.01862704 Eh     11.69 kcal/mol
-----------------------------------------------------------------------
Final entropy term                ...      0.03460202 Eh     21.71 kcal/mol

In case the symmetry of your molecule has not been determined correctly
or in case you have a reason to use a different symmetry number we print
out the resulting rotational entropy values for sn=1,12:

 non-linear molecules -----------------------------------
|  sn= 1 | S(rot)=       0.01251616 Eh      7.85 kcal/mol|
|  sn= 2 | S(rot)=       0.01186170 Eh      7.44 kcal/mol|
|  sn= 3 | S(rot)=       0.01147887 Eh      7.20 kcal/mol|
|  sn= 4 | S(rot)=       0.01120724 Eh      7.03 kcal/mol|
|  sn= 5 | S(rot)=       0.01099655 Eh      6.90 kcal/mol|
|  sn= 6 | S(rot)=       0.01082441 Eh      6.79 kcal/mol|
|  sn= 7 | S(rot)=       0.01067886 Eh      6.70 kcal/mol|
|  sn= 8 | S(rot)=       0.01055279 Eh      6.62 kcal/mol|
|  sn= 9 | S(rot)=       0.01044158 Eh      6.55 kcal/mol|
|  sn=10 | S(rot)=       0.01034210 Eh      6.49 kcal/mol|
|  sn=11 | S(rot)=       0.01025211 Eh      6.43 kcal/mol|
|  sn=12 | S(rot)=       0.01016995 Eh      6.38 kcal/mol|
 linear molecules ---------------------------------------

                      ***********************HURRAY********************
                             ****ORCA TERMINATED NORMALLY****
TOTAL RUN TIME: 0 days 0 hours 39 minutes 47 seconds 837 msec
