                         Program Version 6.1.0  -  RELEASE   -
|  1> ! MP2 6-31G** opt numfreq
|  2>
|  3> * xyzfile 0 1 ethane-geometry.xyz
|  4>
|  5>                          ****END OF INPUT****
 Total Charge           Charge          ....    0
 Multiplicity           Mult            ....    1
 Number of Electrons    NEL             ....   18
MP2 TOTAL ENERGY:      -79.540522654 Eh
FINAL SINGLE POINT ENERGY       -79.540522653750
MP2 TOTAL ENERGY:      -79.540855269 Eh
FINAL SINGLE POINT ENERGY       -79.540855268720
MP2 TOTAL ENERGY:      -79.540866305 Eh
FINAL SINGLE POINT ENERGY       -79.540866304936
MP2 TOTAL ENERGY:      -79.540869013 Eh
FINAL SINGLE POINT ENERGY       -79.540869013463
                    ***********************HURRAY********************

CARTESIAN COORDINATES (ANGSTROEM)
---------------------------------
  C     -4.008440    1.784712    0.000002
  C     -2.701427    1.000483   -0.000020
  H     -4.312150    2.043867    1.013552
  H     -3.911455    2.711691   -0.563906
  H     -4.814667    1.206349   -0.449646
  H     -1.895206    1.578836    0.449652
  H     -2.798419    0.073490    0.563863
  H     -2.397704    0.741352   -1.013572

 Multiplicity           Mult            ....    1
 Number of Electrons    NEL             ....   18
 Basis Dimension        Dim             ....   58

ORBITAL ENERGIES
----------------

  NO   OCC          E(Eh)            E(eV)
   0   2.0000     -11.211191      -305.0720
   1   2.0000     -11.210608      -305.0561
   2   2.0000      -1.018462       -27.7138
   3   2.0000      -0.841533       -22.8993
   4   2.0000      -0.596160       -16.2223
   5   2.0000      -0.596159       -16.2223
   6   2.0000      -0.508942       -13.8490
   7   2.0000      -0.485339       -13.2067
   8   2.0000      -0.485336       -13.2067
   9   0.0000       0.242319         6.5938
  10   0.0000       0.302311         8.2263
  11   0.0000       0.316639         8.6162
  12   0.0000       0.316640         8.6162
  13   0.0000       0.337678         9.1887

MULLIKEN ATOMIC CHARGES
-----------------------
   0 C :   -0.327461
   1 C :   -0.327461
   2 H :    0.109155
   3 H :    0.109154
   4 H :    0.109153
   5 H :    0.109153
   6 H :    0.109154
   7 H :    0.109154
Sum of atomic charges:   -0.0000000

LOEWDIN ATOMIC CHARGES
----------------------
   0 C :   -0.198575
   1 C :   -0.198575
   2 H :    0.066192
   3 H :    0.066192
   4 H :    0.066191
   5 H :    0.066191
   6 H :    0.066192
   7 H :    0.066192

  Mayer bond orders larger than 0.100000
B(  0-C ,  1-C ) :   0.9429 B(  0-C ,  2-H ) :   0.9405 B(  0-C ,  3-H ) :   0.9405
B(  0-C ,  4-H ) :   0.9405 B(  1-C ,  5-H ) :   0.9405 B(  1-C ,  6-H ) :   0.9405
B(  1-C ,  7-H ) :   0.9405

MP2 TOTAL ENERGY:      -79.540869331 Eh
FINAL SINGLE POINT ENERGY       -79.540869330689

DIPOLE MOMENT
-------------

Method             : MP2
Type of density    : Electron Density
Multiplicity       :   1
Level              : Relaxed density
Irrep              :   0
Energy             :     0.0000000000000000 Eh
Basis              : AO
                                X                 Y                 Z
Electronic contribution:     -0.000000268       0.000000757       0.000002351
Nuclear contribution   :      0.000000226      -0.000000875      -0.000002621
                        -----------------------------------------
Total Dipole Moment    :     -0.000000042      -0.000000118      -0.000000270
                        -----------------------------------------
Magnitude (a.u.)       :      0.000000297
Magnitude (Debye)      :      0.000000756

VIBRATIONAL FREQUENCIES
-----------------------

Scaling factor for frequencies =  1.000000000  (already applied!)

     0:       0.00 cm**-1
     1:       0.00 cm**-1
     2:       0.00 cm**-1
     3:       0.00 cm**-1
     4:       0.00 cm**-1
     5:       0.00 cm**-1
     6:     335.16 cm**-1
     7:     845.27 cm**-1
     8:     845.35 cm**-1
     9:    1050.04 cm**-1
    10:    1267.14 cm**-1
    11:    1267.31 cm**-1
    12:    1456.35 cm**-1
    13:    1485.51 cm**-1
    14:    1562.46 cm**-1
    15:    1562.66 cm**-1
    16:    1566.17 cm**-1
    17:    1566.54 cm**-1
    18:    3136.22 cm**-1
    19:    3137.53 cm**-1
    20:    3218.17 cm**-1
    21:    3218.21 cm**-1
    22:    3237.75 cm**-1
    23:    3238.11 cm**-1

IR SPECTRUM
-----------

 Mode   freq       eps      Int      T**2         TX        TY        TZ
       cm**-1   L/(mol*cm) km/mol    a.u.
----------------------------------------------------------------------------
  6:    335.16   0.000000    0.00  0.000000  ( 0.000108 -0.000041  0.000057)
  7:    845.27   0.000679    3.43  0.000251  ( 0.006190  0.010314  0.010300)
  8:    845.35   0.000669    3.38  0.000247  (-0.005351 -0.008705  0.011934)
  9:   1050.04   0.000000    0.00  0.000000  ( 0.000020  0.000031 -0.000007)
 10:   1267.14   0.000000    0.00  0.000000  ( 0.000034  0.000051 -0.000009)
 11:   1267.31   0.000000    0.00  0.000000  (-0.000018 -0.000029  0.000011)
 12:   1456.35   0.000086    0.44  0.000018  (-0.003711  0.002172 -0.000026)
 13:   1485.51   0.000000    0.00  0.000000  (-0.000067 -0.000031  0.000008)
 14:   1562.46   0.000001    0.01  0.000000  (-0.000238 -0.000424 -0.000052)
 15:   1562.66   0.000001    0.01  0.000000  (-0.000244 -0.000378  0.000137)
 16:   1566.17   0.001275    6.44  0.000254  (-0.001895 -0.003104  0.015519)
 17:   1566.54   0.001273    6.43  0.000254  (-0.008009 -0.013305 -0.003533)
 18:   3136.22   0.000083    0.42  0.000008  (-0.002458  0.001501  0.000044)
 19:   3137.53   0.009195   46.47  0.000915  ( 0.025946 -0.015537  0.000146)
 20:   3218.17   0.000000    0.00  0.000000  (-0.000072 -0.000013 -0.000142)
 21:   3218.21   0.000001    0.00  0.000000  (-0.000128 -0.000033 -0.000245)
 22:   3237.75   0.011345   57.33  0.001093  (-0.017006 -0.028303  0.001789)
 23:   3238.11   0.011316   57.19  0.001091  ( 0.000795  0.001606  0.032975)

--------------------------
THERMOCHEMISTRY AT 298.15K
--------------------------

Temperature         ...   298.15 K
Pressure            ...     1.00 atm
Total Mass          ...    30.07 AMU
Quasi RRHO          ...     True
Cut-Off Frequency   ...     1.00 cm^-1

Throughout the following assumptions are being made:
  (1) The electronic state is orbitally nondegenerate
  (2) There are no thermally accessible electronically excited states
  (3) Hindered rotations indicated by low frequency modes are not
      treated as such but are treated as vibrations and this may
      cause some error
  (4) All equations used are the standard statistical mechanics
      equations for an ideal gas
  (5) All vibrations are strictly harmonic

freq.     335.16  E(vib)   ...       0.24
freq.     845.27  E(vib)   ...       0.04
freq.     845.35  E(vib)   ...       0.04
freq.    1050.04  E(vib)   ...       0.02
freq.    1267.14  E(vib)   ...       0.01
freq.    1267.31  E(vib)   ...       0.01
freq.    1456.35  E(vib)   ...       0.00
freq.    1485.51  E(vib)   ...       0.00
freq.    1562.46  E(vib)   ...       0.00
freq.    1562.66  E(vib)   ...       0.00
freq.    1566.17  E(vib)   ...       0.00
freq.    1566.54  E(vib)   ...       0.00
freq.    3136.22  E(vib)   ...       0.00
freq.    3137.53  E(vib)   ...       0.00
freq.    3218.17  E(vib)   ...       0.00
freq.    3218.21  E(vib)   ...       0.00
freq.    3237.75  E(vib)   ...       0.00
freq.    3238.11  E(vib)   ...       0.00

------------
INNER ENERGY
------------

The inner energy is: U= E(el) + E(ZPE) + E(vib) + E(rot) + E(trans)
    E(el)   - is the total energy from the electronic structure calculation
              = E(kin-el) + E(nuc-el) + E(el-el) + E(nuc-nuc)
    E(ZPE)  - the the zero temperature vibrational energy from the frequency calculation
    E(vib)  - the the finite temperature correction to E(ZPE) due to population
              of excited vibrational states
    E(rot)  - is the rotational thermal energy
    E(trans)- is the translational thermal energy

Summary of contributions to the inner energy U:
Electronic energy                ...    -79.54086935 Eh
Zero point energy                ...      0.07744849 Eh      48.60 kcal/mol
Thermal vibrational correction   ...      0.00059269 Eh       0.37 kcal/mol
Thermal rotational correction    ...      0.00141627 Eh       0.89 kcal/mol
Thermal translational correction ...      0.00141627 Eh       0.89 kcal/mol
-----------------------------------------------------------------------
Total thermal energy                    -79.45999563 Eh

Summary of corrections to the electronic energy:
(perhaps to be used in another calculation)
Total thermal correction                  0.00342523 Eh       2.15 kcal/mol
Non-thermal (ZPE) correction              0.07744849 Eh      48.60 kcal/mol
-----------------------------------------------------------------------
Total correction                          0.08087372 Eh      50.75 kcal/mol

--------
ENTHALPY
--------

The enthalpy is H = U + kB*T
                kB is Boltzmann's constant
Total thermal energy              ...    -79.45999563 Eh
Thermal Enthalpy correction       ...      0.00094421 Eh       0.59 kcal/mol
-----------------------------------------------------------------------
Total Enthalpy                    ...    -79.45905142 Eh

Note: Rotational entropy computed according to Herzberg
Infrared and Raman Spectra, Chapter V,1, Van Nostrand Reinhold, 1945
Point Group:  D3d, Symmetry Number:   6
Rotational constants in cm-1:     2.701834     0.670211     0.670210

Vibrational entropy computed according to the QRRHO of S. Grimme
Chem.Eur.J. 2012 18 9955 using a reference frequency of 100.0 cm-1

-------
ENTROPY
-------

The entropy contributions are T*S = T*(S(el)+S(vib)+S(rot)+S(trans))
     S(el)   - electronic entropy
     S(vib)  - vibrational entropy
     S(rot)  - rotational entropy
     S(trans)- translational entropy
The entropies will be listed as multiplied by the temperature to get
units of energy

Electronic entropy                ...      0.00000000 Eh      0.00 kcal/mol
Vibrational entropy               ...      0.00084913 Eh      0.53 kcal/mol
Rotational entropy                ...      0.00772767 Eh      4.85 kcal/mol
Translational entropy             ...      0.01716939 Eh     10.77 kcal/mol
-----------------------------------------------------------------------
Final entropy term                ...      0.02574619 Eh     16.16 kcal/mol

In case the symmetry of your molecule has not been determined correctly
or in case you have a reason to use a different symmetry number we print
out the resulting rotational entropy values for sn=1,12:

 non-linear molecules -----------------------------------
|  sn= 1 | S(rot)=       0.00941941 Eh      5.91 kcal/mol|
|  sn= 2 | S(rot)=       0.00876496 Eh      5.50 kcal/mol|
|  sn= 3 | S(rot)=       0.00838212 Eh      5.26 kcal/mol|
|  sn= 4 | S(rot)=       0.00811050 Eh      5.09 kcal/mol|
|  sn= 5 | S(rot)=       0.00789981 Eh      4.96 kcal/mol|
|  sn= 6 | S(rot)=       0.00772767 Eh      4.85 kcal/mol|
|  sn= 7 | S(rot)=       0.00758212 Eh      4.76 kcal/mol|
|  sn= 8 | S(rot)=       0.00745604 Eh      4.68 kcal/mol|
|  sn= 9 | S(rot)=       0.00734483 Eh      4.61 kcal/mol|
|  sn=10 | S(rot)=       0.00724535 Eh      4.55 kcal/mol|
|  sn=11 | S(rot)=       0.00715536 Eh      4.49 kcal/mol|
|  sn=12 | S(rot)=       0.00707321 Eh      4.44 kcal/mol|
 linear molecules ---------------------------------------
|  Dinfh | S(rot)=       0.00570363 Eh      3.58 kcal/mol|
|  Cinfv | S(rot)=       0.00635809 Eh      3.99 kcal/mol|
 --------------------------------------------------------

-------------------
GIBBS FREE ENERGY
-------------------

The Gibbs free energy is G = H - T*S

Total enthalpy                    ...    -79.45905142 Eh
Total entropy correction          ...     -0.02574619 Eh    -16.16 kcal/mol
-----------------------------------------------------------------------
Final Gibbs free energy         ...    -79.48479761 Eh

For completeness - the Gibbs free energy minus the electronic energy
G-E(el)                           ...      0.05607174 Eh     35.19 kcal/mol

                             ****ORCA TERMINATED NORMALLY****
TOTAL RUN TIME: 0 days 0 hours 1 minutes 2 seconds 224 msec
