                         Program Version 6.1.0  -  RELEASE   -
|  1> ! MP2 6-31G** opt numfreq
|  2>
|  3> * xyzfile 0 2 ethyl-radical-geometry.xyz
|  4>
|  5>                          ****END OF INPUT****
 Total Charge           Charge          ....    0
 Multiplicity           Mult            ....    2
 Number of Electrons    NEL             ....   17
MP2 TOTAL ENERGY:      -78.863534489 Eh
FINAL SINGLE POINT ENERGY       -78.863534489457
MP2 TOTAL ENERGY:      -78.870115734 Eh
FINAL SINGLE POINT ENERGY       -78.870115734164
MP2 TOTAL ENERGY:      -78.872344388 Eh
FINAL SINGLE POINT ENERGY       -78.872344388499
MP2 TOTAL ENERGY:      -78.873113053 Eh
FINAL SINGLE POINT ENERGY       -78.873113052973
MP2 TOTAL ENERGY:      -78.873312493 Eh
FINAL SINGLE POINT ENERGY       -78.873312493055
MP2 TOTAL ENERGY:      -78.873348044 Eh
FINAL SINGLE POINT ENERGY       -78.873348044427
FINAL SINGLE POINT ENERGY       -78.873352992372
FINAL SINGLE POINT ENERGY       -78.873354576544
MP2 TOTAL ENERGY:      -78.873355490 Eh
FINAL SINGLE POINT ENERGY       -78.873355489577
MP2 TOTAL ENERGY:      -78.873356159 Eh
FINAL SINGLE POINT ENERGY       -78.873356158576
MP2 TOTAL ENERGY:      -78.873356934 Eh
FINAL SINGLE POINT ENERGY       -78.873356933811
MP2 TOTAL ENERGY:      -78.873357562 Eh
FINAL SINGLE POINT ENERGY       -78.873357561721
MP2 TOTAL ENERGY:      -78.873357864 Eh
FINAL SINGLE POINT ENERGY       -78.873357864451
                    ***********************HURRAY********************

CARTESIAN COORDINATES (ANGSTROEM)
---------------------------------
  C     -4.037611    1.765318   -0.015270
  C     -2.851031    0.867985   -0.094618
  H     -4.273792    2.021297    1.017119
  H     -3.872455    2.691828   -0.564301
  H     -4.932275    1.297254   -0.440735
  H     -2.692647    0.102369    0.648575
  H     -2.273883    0.802279   -1.003560

 Multiplicity           Mult            ....    2
 Number of Electrons    NEL             ....   17
 Basis Dimension        Dim             ....   53

ORBITAL ENERGIES
----------------
                 SPIN UP ORBITALS
  NO   OCC          E(Eh)            E(eV)
   0   1.0000     -11.225417      -305.4591
   1   1.0000     -11.215539      -305.1903
   2   1.0000      -1.028050       -27.9747
   3   1.0000      -0.839004       -22.8305
   4   1.0000      -0.615309       -16.7434
   5   1.0000      -0.575325       -15.6554
   6   1.0000      -0.537415       -14.6238
   7   1.0000      -0.501592       -13.6490
   8   1.0000      -0.349961        -9.5229
   9   0.0000       0.255410         6.9500
  10   0.0000       0.285003         7.7553
  11   0.0000       0.301530         8.2050
  12   0.0000       0.330130         8.9833
  13   0.0000       0.365656         9.9500

                 SPIN DOWN ORBITALS
  NO   OCC          E(Eh)            E(eV)
   0   1.0000     -11.218778      -305.2785
   1   1.0000     -11.200479      -304.7805
   2   1.0000      -0.991172       -26.9712
   3   1.0000      -0.784043       -21.3349
   4   1.0000      -0.603798       -16.4302
   5   1.0000      -0.544034       -14.8039
   6   1.0000      -0.525015       -14.2864
   7   1.0000      -0.495527       -13.4840
   8   0.0000       0.164727         4.4825
   9   0.0000       0.260597         7.0912
  10   0.0000       0.304325         8.2811
  11   0.0000       0.305245         8.3061
  12   0.0000       0.340128         9.2554

MULLIKEN ATOMIC CHARGES AND SPIN DENSITIES
------------------------------------------
   0 C :   -0.349247   -0.104626
   1 C :   -0.235802    1.152383
   2 H :    0.119519    0.011851
   3 H :    0.119525    0.011878
   4 H :    0.120561    0.056279
   5 H :    0.112724   -0.063883
   6 H :    0.112719   -0.063881
Sum of atomic charges       :   -0.0000000

LOEWDIN ATOMIC CHARGES AND SPIN DENSITIES
-----------------------------------------
   0 C :   -0.212044   -0.024535
   1 C :   -0.132804    0.987248
   2 H :    0.073905    0.010050
   3 H :    0.073908    0.010075
   4 H :    0.074919    0.048658
   5 H :    0.061059   -0.015748
   6 H :    0.061056   -0.015747

  Mayer bond orders larger than 0.100000
B(  0-C ,  1-C ) :   0.9645 B(  0-C ,  2-H ) :   0.9365 B(  0-C ,  3-H ) :   0.9365
B(  0-C ,  4-H ) :   0.9197 B(  1-C ,  5-H ) :   0.9355 B(  1-C ,  6-H ) :   0.9355

MP2 TOTAL ENERGY:      -78.873357945 Eh
FINAL SINGLE POINT ENERGY       -78.873357944833

DIPOLE MOMENT
-------------

Method             : MP2
Type of density    : Electron Density
Multiplicity       :   2
Level              : Relaxed density
Irrep              :   0
Energy             :     0.0000000000000000 Eh
Basis              : AO
                                X                 Y                 Z
Electronic contribution:      0.546030338      -0.263170597       0.026926539
Nuclear contribution   :     -0.638562752       0.257277989      -0.052873811
                        -----------------------------------------
Total Dipole Moment    :     -0.092532415      -0.005892608      -0.025947272
                        -----------------------------------------
Magnitude (a.u.)       :      0.096282042
Magnitude (Debye)      :      0.244729501

VIBRATIONAL FREQUENCIES
-----------------------

Scaling factor for frequencies =  1.000000000  (already applied!)

     0:       0.00 cm**-1
     1:       0.00 cm**-1
     2:       0.00 cm**-1
     3:       0.00 cm**-1
     4:       0.00 cm**-1
     5:       0.00 cm**-1
     6:     168.87 cm**-1
     7:     466.79 cm**-1
     8:     833.79 cm**-1
     9:    1024.54 cm**-1
    10:    1109.42 cm**-1
    11:    1244.20 cm**-1
    12:    1460.07 cm**-1
    13:    1535.61 cm**-1
    14:    1548.89 cm**-1
    15:    1549.52 cm**-1
    16:    3094.91 cm**-1
    17:    3181.26 cm**-1
    18:    3226.92 cm**-1
    19:    3266.74 cm**-1
    20:    3380.69 cm**-1

IR SPECTRUM
-----------

 Mode   freq       eps      Int      T**2         TX        TY        TZ
       cm**-1   L/(mol*cm) km/mol    a.u.
----------------------------------------------------------------------------
  6:    168.87   0.000070    0.35  0.000129  ( 0.002341  0.003982 -0.010377)
  7:    466.79   0.009101   45.99  0.006084  (-0.054465 -0.044883 -0.033220)
  8:    833.79   0.000299    1.51  0.000112  ( 0.002392  0.003752 -0.009599)
  9:   1024.54   0.000047    0.24  0.000014  ( 0.003414 -0.001630  0.000129)
 10:   1109.42   0.000008    0.04  0.000002  (-0.000906 -0.000988 -0.000670)
 11:   1244.20   0.000402    2.03  0.000101  (-0.002256 -0.003880  0.008975)
 12:   1460.07   0.000085    0.43  0.000018  (-0.003887  0.001723 -0.000317)
 13:   1535.61   0.000658    3.32  0.000134  (-0.009507 -0.004906 -0.004385)
 14:   1548.89   0.000443    2.24  0.000089  ( 0.000388 -0.008853 -0.003263)
 15:   1549.52   0.000689    3.48  0.000139  ( 0.002543  0.004157 -0.010729)
 16:   3094.91   0.004405   22.26  0.000444  (-0.020473  0.003266 -0.003785)
 17:   3181.26   0.004691   23.71  0.000460  ( 0.004566  0.018873  0.009115)
 18:   3226.92   0.003877   19.59  0.000375  (-0.004456 -0.007315  0.017366)
 19:   3266.74   0.002783   14.06  0.000266  (-0.012457  0.010467  0.001052)
 20:   3380.69   0.003000   15.16  0.000277  ( 0.003800  0.006280 -0.014933)

--------------------------
THERMOCHEMISTRY AT 298.15K
--------------------------

Temperature         ...   298.15 K
Pressure            ...     1.00 atm
Total Mass          ...    29.06 AMU
Quasi RRHO          ...     True
Cut-Off Frequency   ...     1.00 cm^-1

Throughout the following assumptions are being made:
  (1) The electronic state is orbitally nondegenerate
      but the spin degeneracy is treated
  (2) There are no thermally accessible electronically excited states
  (3) Hindered rotations indicated by low frequency modes are not
      treated as such but are treated as vibrations and this may
      cause some error
  (4) All equations used are the standard statistical mechanics
      equations for an ideal gas
  (5) All vibrations are strictly harmonic

freq.     168.87  E(vib)   ...       0.38
freq.     466.79  E(vib)   ...       0.16
freq.     833.79  E(vib)   ...       0.04
freq.    1024.54  E(vib)   ...       0.02
freq.    1109.42  E(vib)   ...       0.02
freq.    1244.20  E(vib)   ...       0.01
freq.    1460.07  E(vib)   ...       0.00
freq.    1535.61  E(vib)   ...       0.00
freq.    1548.89  E(vib)   ...       0.00
freq.    1549.52  E(vib)   ...       0.00
freq.    3094.91  E(vib)   ...       0.00
freq.    3181.26  E(vib)   ...       0.00
freq.    3226.92  E(vib)   ...       0.00
freq.    3266.74  E(vib)   ...       0.00
freq.    3380.69  E(vib)   ...       0.00

------------
INNER ENERGY
------------

The inner energy is: U= E(el) + E(ZPE) + E(vib) + E(rot) + E(trans)
    E(el)   - is the total energy from the electronic structure calculation
              = E(kin-el) + E(nuc-el) + E(el-el) + E(nuc-nuc)
    E(ZPE)  - the the zero temperature vibrational energy from the frequency calculation
    E(vib)  - the the finite temperature correction to E(ZPE) due to population
              of excited vibrational states
    E(rot)  - is the rotational thermal energy
    E(trans)- is the translational thermal energy

Summary of contributions to the inner energy U:
Electronic energy                ...    -78.87335792 Eh
Zero point energy                ...      0.06172059 Eh      38.73 kcal/mol
Thermal vibrational correction   ...      0.00101988 Eh       0.64 kcal/mol
Thermal rotational correction    ...      0.00141627 Eh       0.89 kcal/mol
Thermal translational correction ...      0.00141627 Eh       0.89 kcal/mol
-----------------------------------------------------------------------
Total thermal energy                    -78.80778492 Eh

Summary of corrections to the electronic energy:
(perhaps to be used in another calculation)
Total thermal correction                  0.00385242 Eh       2.42 kcal/mol
Non-thermal (ZPE) correction              0.06172059 Eh      38.73 kcal/mol
-----------------------------------------------------------------------
Total correction                          0.06557300 Eh      41.15 kcal/mol

--------
ENTHALPY
--------

The enthalpy is H = U + kB*T
                kB is Boltzmann's constant
Total thermal energy              ...    -78.80778492 Eh
Thermal Enthalpy correction       ...      0.00094421 Eh       0.59 kcal/mol
-----------------------------------------------------------------------
Total Enthalpy                    ...    -78.80684071 Eh

Note: Only C1 symmetry has been detected, increase convergence thresholds
      if your molecule has a higher symmetry. Symmetry factor of 1.0 is
      used for the rotational entropy correction.

Note: Rotational entropy computed according to Herzberg
Infrared and Raman Spectra, Chapter V,1, Van Nostrand Reinhold, 1945
Point Group:  C1, Symmetry Number:   1
Rotational constants in cm-1:     3.474750     0.758715     0.704586

Vibrational entropy computed according to the QRRHO of S. Grimme
Chem.Eur.J. 2012 18 9955 using a reference frequency of 100.0 cm-1

-------
ENTROPY
-------

The entropy contributions are T*S = T*(S(el)+S(vib)+S(rot)+S(trans))
     S(el)   - electronic entropy
     S(vib)  - vibrational entropy
     S(rot)  - rotational entropy
     S(trans)- translational entropy
The entropies will be listed as multiplied by the temperature to get
units of energy

Electronic entropy                ...      0.00065446 Eh      0.41 kcal/mol
Vibrational entropy               ...      0.00170426 Eh      1.07 kcal/mol
Rotational entropy                ...      0.00921847 Eh      5.78 kcal/mol
Translational entropy             ...      0.01712110 Eh     10.74 kcal/mol
-----------------------------------------------------------------------
Final entropy term                ...      0.02869829 Eh     18.01 kcal/mol

In case the symmetry of your molecule has not been determined correctly
or in case you have a reason to use a different symmetry number we print
out the resulting rotational entropy values for sn=1,12:

 non-linear molecules -----------------------------------
|  sn= 1 | S(rot)=       0.00921847 Eh      5.78 kcal/mol|
|  sn= 2 | S(rot)=       0.00856401 Eh      5.37 kcal/mol|
|  sn= 3 | S(rot)=       0.00818118 Eh      5.13 kcal/mol|
|  sn= 4 | S(rot)=       0.00790956 Eh      4.96 kcal/mol|
|  sn= 5 | S(rot)=       0.00769887 Eh      4.83 kcal/mol|
|  sn= 6 | S(rot)=       0.00752672 Eh      4.72 kcal/mol|
|  sn= 7 | S(rot)=       0.00738118 Eh      4.63 kcal/mol|
|  sn= 8 | S(rot)=       0.00725510 Eh      4.55 kcal/mol|
|  sn= 9 | S(rot)=       0.00714389 Eh      4.48 kcal/mol|
|  sn=10 | S(rot)=       0.00704441 Eh      4.42 kcal/mol|
|  sn=11 | S(rot)=       0.00695442 Eh      4.36 kcal/mol|
|  sn=12 | S(rot)=       0.00687227 Eh      4.31 kcal/mol|
 linear molecules ---------------------------------------
|  Dinfh | S(rot)=       0.00565641 Eh      3.55 kcal/mol|
|  Cinfv | S(rot)=       0.00631086 Eh      3.96 kcal/mol|
 --------------------------------------------------------

-------------------
GIBBS FREE ENERGY
-------------------

The Gibbs free energy is G = H - T*S

Total enthalpy                    ...    -78.80684071 Eh
Total entropy correction          ...     -0.02869829 Eh    -18.01 kcal/mol
-----------------------------------------------------------------------
Final Gibbs free energy         ...    -78.83553900 Eh

For completeness - the Gibbs free energy minus the electronic energy
G-E(el)                           ...      0.03781893 Eh     23.73 kcal/mol

                             ****ORCA TERMINATED NORMALLY****
TOTAL RUN TIME: 0 days 0 hours 1 minutes 25 seconds 779 msec
