                         Program Version 6.1.0  -  RELEASE   -
|  1> ! MP2 6-311G** opt numfreq
|  2>
|  3> * xyzfile 0 1 /home/vivek/mm/lab5/6-311/nh3/dimer/dimer-input-coordinates.xyz
|  4>
|  5>                          ****END OF INPUT****
 Total Charge           Charge          ....    0
 Multiplicity           Mult            ....    1
 Number of Electrons    NEL             ....   20
MP2 TOTAL ENERGY:     -112.822712321 Eh
FINAL SINGLE POINT ENERGY      -112.822712320640
MP2 TOTAL ENERGY:     -112.823618765 Eh
FINAL SINGLE POINT ENERGY      -112.823618765173
MP2 TOTAL ENERGY:     -112.824131810 Eh
FINAL SINGLE POINT ENERGY      -112.824131810067
MP2 TOTAL ENERGY:     -112.824255967 Eh
FINAL SINGLE POINT ENERGY      -112.824255967391
MP2 TOTAL ENERGY:     -112.824291038 Eh
FINAL SINGLE POINT ENERGY      -112.824291037672
MP2 TOTAL ENERGY:     -112.824304853 Eh
FINAL SINGLE POINT ENERGY      -112.824304852871
FINAL SINGLE POINT ENERGY      -112.824316671096
FINAL SINGLE POINT ENERGY      -112.824338473074
FINAL SINGLE POINT ENERGY      -112.824378525715
FINAL SINGLE POINT ENERGY      -112.824437177995
FINAL SINGLE POINT ENERGY      -112.824529764960
FINAL SINGLE POINT ENERGY      -112.824538474981
FINAL SINGLE POINT ENERGY      -112.824546130738
FINAL SINGLE POINT ENERGY      -112.824552643381
MP2 TOTAL ENERGY:     -112.824557046 Eh
FINAL SINGLE POINT ENERGY      -112.824557045555
MP2 TOTAL ENERGY:     -112.824561766 Eh
FINAL SINGLE POINT ENERGY      -112.824561766049
MP2 TOTAL ENERGY:     -112.824565822 Eh
FINAL SINGLE POINT ENERGY      -112.824565822034
MP2 TOTAL ENERGY:     -112.824569240 Eh
FINAL SINGLE POINT ENERGY      -112.824569239501
MP2 TOTAL ENERGY:     -112.824570925 Eh
FINAL SINGLE POINT ENERGY      -112.824570924509
                    ***********************HURRAY********************

CARTESIAN COORDINATES (ANGSTROEM)
---------------------------------
  N     -3.368587   -0.477803   -0.033476
  H     -3.201463   -0.665499    0.949059
  H     -2.565823   -0.838570   -0.536873
  H     -4.159458   -1.051997   -0.303732
  N     -3.947888    2.709998    0.143709
  H     -4.615470    2.966301   -0.575504
  H     -3.773198    1.713370    0.025738
  H     -3.085248    3.178587   -0.111209

 Multiplicity           Mult            ....    1
 Number of Electrons    NEL             ....   20
 Basis Dimension        Dim             ....   72

ORBITAL ENERGIES
----------------

  NO   OCC          E(Eh)            E(eV)
   0   2.0000     -15.547352      -423.0650
   1   2.0000     -15.496784      -421.6889
   2   2.0000      -1.152535       -31.3621
   3   2.0000      -1.104593       -30.0575
   4   2.0000      -0.637904       -17.3583
   5   2.0000      -0.637332       -17.3427
   6   2.0000      -0.591932       -16.1073
   7   2.0000      -0.590079       -16.0569
   8   2.0000      -0.441312       -12.0087
   9   2.0000      -0.394515       -10.7353
  10   0.0000       0.142397         3.8748
  11   0.0000       0.193382         5.2622
  12   0.0000       0.217984         5.9316
  13   0.0000       0.222660         6.0589
  14   0.0000       0.250121         6.8061

MULLIKEN ATOMIC CHARGES
-----------------------
   0 N :   -0.549708
   1 H :    0.203733
   2 H :    0.195627
   3 H :    0.197699
   4 N :   -0.589122
   5 H :    0.171511
   6 H :    0.199316
   7 H :    0.170945
Sum of atomic charges:   -0.0000000

LOEWDIN ATOMIC CHARGES
----------------------
   0 N :   -0.032492
   1 H :    0.032092
   2 H :    0.028668
   3 H :    0.029895
   4 N :   -0.091553
   5 H :    0.016138
   6 H :    0.001396
   7 H :    0.015856

  Mayer bond orders larger than 0.100000
B(  0-N ,  1-H ) :   0.9180 B(  0-N ,  2-H ) :   0.9227 B(  0-N ,  3-H ) :   0.9219
B(  4-N ,  5-H ) :   0.9339 B(  4-N ,  6-H ) :   0.8924 B(  4-N ,  7-H ) :   0.9341

MP2 TOTAL ENERGY:     -112.824571633 Eh
FINAL SINGLE POINT ENERGY      -112.824571633048

DIPOLE MOMENT
-------------

Method             : MP2
Type of density    : Electron Density
Multiplicity       :   1
Level              : Relaxed density
Irrep              :   0
Energy             :     0.0000000000000000 Eh
Basis              : AO
                                X                 Y                 Z
Electronic contribution:     -0.063194638       0.000120246       0.171541577
Nuclear contribution   :      0.423247374      -1.075452980      -0.681200784
                        -----------------------------------------
Total Dipole Moment    :      0.360052735      -1.075332734      -0.509659207
                        -----------------------------------------
Magnitude (a.u.)       :      1.243274293
Magnitude (Debye)      :      3.160152111

VIBRATIONAL FREQUENCIES
-----------------------

Scaling factor for frequencies =  1.000000000  (already applied!)

     0:       0.00 cm**-1
     1:       0.00 cm**-1
     2:       0.00 cm**-1
     3:       0.00 cm**-1
     4:       0.00 cm**-1
     5:       0.00 cm**-1
     6:     -40.80 cm**-1  ***imaginary mode***
     7:      74.12 cm**-1
     8:     119.99 cm**-1
     9:     143.54 cm**-1
    10:     290.44 cm**-1
    11:     378.52 cm**-1
    12:    1127.12 cm**-1
    13:    1179.19 cm**-1
    14:    1666.30 cm**-1
    15:    1671.62 cm**-1
    16:    1678.88 cm**-1
    17:    1717.45 cm**-1
    18:    3485.66 cm**-1
    19:    3525.90 cm**-1
    20:    3620.77 cm**-1
    21:    3657.95 cm**-1
    22:    3668.61 cm**-1
    23:    3669.92 cm**-1

IR SPECTRUM
-----------

 Mode   freq       eps      Int      T**2         TX        TY        TZ
       cm**-1   L/(mol*cm) km/mol    a.u.
----------------------------------------------------------------------------
  7:     74.12   0.012942   65.41  0.054492  (-0.019977  0.156205  0.172317)
  8:    119.99   0.007137   36.07  0.018561  (-0.131686 -0.021234 -0.027740)
  9:    143.54   0.000353    1.79  0.000768  (-0.006682  0.021768  0.015811)
 10:    290.44   0.010721   54.18  0.011519  (-0.101180 -0.016672 -0.031678)
 11:    378.52   0.013144   66.42  0.010836  (-0.001934 -0.094079  0.044513)
 12:   1127.12   0.030352  153.39  0.008404  (-0.014192  0.088718 -0.018203)
 13:   1179.19   0.029931  151.26  0.007921  ( 0.027685 -0.020552 -0.082049)
 14:   1666.30   0.003561   18.00  0.000667  ( 0.010081  0.011800  0.020642)
 15:   1671.62   0.003892   19.67  0.000727  (-0.024755 -0.003183  0.010183)
 16:   1678.88   0.002833   14.32  0.000527  ( 0.005348 -0.017835  0.013412)
 17:   1717.45   0.002353   11.89  0.000427  (-0.020143 -0.001343 -0.004467)
 18:   3485.66   0.015561   78.64  0.001393  ( 0.004953 -0.036890  0.002792)
 19:   3525.90   0.000010    0.05  0.000001  ( 0.000129 -0.000910 -0.000251)
 20:   3620.77   0.008925   45.10  0.000769  ( 0.005122 -0.027159 -0.002319)
 21:   3657.95   0.000104    0.53  0.000009  (-0.002870 -0.000346 -0.000742)
 22:   3668.61   0.000692    3.50  0.000059  (-0.004133 -0.001626 -0.006253)
 23:   3669.92   0.000611    3.09  0.000052  ( 0.005657  0.000194 -0.004465)

--------------------------
THERMOCHEMISTRY AT 298.15K
--------------------------

Temperature         ...   298.15 K
Pressure            ...     1.00 atm
Total Mass          ...    34.06 AMU
Quasi RRHO          ...     True
Cut-Off Frequency   ...     1.00 cm^-1

Throughout the following assumptions are being made:
  (1) The electronic state is orbitally nondegenerate
  (2) There are no thermally accessible electronically excited states
  (3) Hindered rotations indicated by low frequency modes are not
      treated as such but are treated as vibrations and this may
      cause some error
  (4) All equations used are the standard statistical mechanics
      equations for an ideal gas
  (5) All vibrations are strictly harmonic

freq.      74.12  E(vib)   ...       0.49
freq.     119.99  E(vib)   ...       0.44
freq.     143.54  E(vib)   ...       0.41
freq.     290.44  E(vib)   ...       0.27
freq.     378.52  E(vib)   ...       0.21
freq.    1127.12  E(vib)   ...       0.01
freq.    1179.19  E(vib)   ...       0.01
freq.    1666.30  E(vib)   ...       0.00
freq.    1671.62  E(vib)   ...       0.00
freq.    1678.88  E(vib)   ...       0.00
freq.    1717.45  E(vib)   ...       0.00
freq.    3485.66  E(vib)   ...       0.00
freq.    3525.90  E(vib)   ...       0.00
freq.    3620.77  E(vib)   ...       0.00
freq.    3657.95  E(vib)   ...       0.00
freq.    3668.61  E(vib)   ...       0.00
freq.    3669.92  E(vib)   ...       0.00

------------
INNER ENERGY
------------

The inner energy is: U= E(el) + E(ZPE) + E(vib) + E(rot) + E(trans)
    E(el)   - is the total energy from the electronic structure calculation
              = E(kin-el) + E(nuc-el) + E(el-el) + E(nuc-nuc)
    E(ZPE)  - the the zero temperature vibrational energy from the frequency calculation
    E(vib)  - the the finite temperature correction to E(ZPE) due to population
              of excited vibrational states
    E(rot)  - is the rotational thermal energy
    E(trans)- is the translational thermal energy

Summary of contributions to the inner energy U:
Electronic energy                ...   -112.82457162 Eh
Zero point energy                ...      0.07216315 Eh      45.28 kcal/mol
Thermal vibrational correction   ...      0.00295002 Eh       1.85 kcal/mol
Thermal rotational correction    ...      0.00141627 Eh       0.89 kcal/mol
Thermal translational correction ...      0.00141627 Eh       0.89 kcal/mol
-----------------------------------------------------------------------
Total thermal energy                   -112.74662590 Eh

Summary of corrections to the electronic energy:
(perhaps to be used in another calculation)
Total thermal correction                  0.00578257 Eh       3.63 kcal/mol
Non-thermal (ZPE) correction              0.07216315 Eh      45.28 kcal/mol
-----------------------------------------------------------------------
Total correction                          0.07794572 Eh      48.91 kcal/mol

--------
ENTHALPY
--------

The enthalpy is H = U + kB*T
                kB is Boltzmann's constant
Total thermal energy              ...   -112.74662590 Eh
Thermal Enthalpy correction       ...      0.00094421 Eh       0.59 kcal/mol
-----------------------------------------------------------------------
Total Enthalpy                    ...   -112.74568170 Eh

Note: Only C1 symmetry has been detected, increase convergence thresholds
      if your molecule has a higher symmetry. Symmetry factor of 1.0 is
      used for the rotational entropy correction.

Note: Rotational entropy computed according to Herzberg
Infrared and Raman Spectra, Chapter V,1, Van Nostrand Reinhold, 1945
Point Group:  C1, Symmetry Number:   1
Rotational constants in cm-1:     3.822904     0.176426     0.174838

Vibrational entropy computed according to the QRRHO of S. Grimme
Chem.Eur.J. 2012 18 9955 using a reference frequency of 100.0 cm-1

-------
ENTROPY
-------

The entropy contributions are T*S = T*(S(el)+S(vib)+S(rot)+S(trans))
     S(el)   - electronic entropy
     S(vib)  - vibrational entropy
     S(rot)  - rotational entropy
     S(trans)- translational entropy
The entropies will be listed as multiplied by the temperature to get
units of energy

Electronic entropy                ...      0.00000000 Eh      0.00 kcal/mol
Vibrational entropy               ...      0.00554446 Eh      3.48 kcal/mol
Rotational entropy                ...      0.01052002 Eh      6.60 kcal/mol
Translational entropy             ...      0.01734594 Eh     10.88 kcal/mol
-----------------------------------------------------------------------
Final entropy term                ...      0.03341041 Eh     20.97 kcal/mol

In case the symmetry of your molecule has not been determined correctly
or in case you have a reason to use a different symmetry number we print
out the resulting rotational entropy values for sn=1,12:

 non-linear molecules -----------------------------------
|  sn= 1 | S(rot)=       0.01052002 Eh      6.60 kcal/mol|
|  sn= 2 | S(rot)=       0.00986556 Eh      6.19 kcal/mol|
|  sn= 3 | S(rot)=       0.00948273 Eh      5.95 kcal/mol|
|  sn= 4 | S(rot)=       0.00921111 Eh      5.78 kcal/mol|
|  sn= 5 | S(rot)=       0.00900042 Eh      5.65 kcal/mol|
|  sn= 6 | S(rot)=       0.00882827 Eh      5.54 kcal/mol|
|  sn= 7 | S(rot)=       0.00868273 Eh      5.45 kcal/mol|
|  sn= 8 | S(rot)=       0.00855665 Eh      5.37 kcal/mol|
|  sn= 9 | S(rot)=       0.00844544 Eh      5.30 kcal/mol|
|  sn=10 | S(rot)=       0.00834596 Eh      5.24 kcal/mol|
|  sn=11 | S(rot)=       0.00825597 Eh      5.18 kcal/mol|
|  sn=12 | S(rot)=       0.00817382 Eh      5.13 kcal/mol|
 linear molecules ---------------------------------------
|  Dinfh | S(rot)=       0.00697236 Eh      4.38 kcal/mol|
|  Cinfv | S(rot)=       0.00762682 Eh      4.79 kcal/mol|
 --------------------------------------------------------

-------------------
GIBBS FREE ENERGY
-------------------

The Gibbs free energy is G = H - T*S

Total enthalpy                    ...   -112.74568170 Eh
Total entropy correction          ...     -0.03341041 Eh    -20.97 kcal/mol
-----------------------------------------------------------------------
Final Gibbs free energy         ...   -112.77909210 Eh

For completeness - the Gibbs free energy minus the electronic energy
G-E(el)                           ...      0.04547952 Eh     28.54 kcal/mol

                             ****ORCA TERMINATED NORMALLY****
TOTAL RUN TIME: 0 days 0 hours 18 minutes 49 seconds 283 msec
