                         Program Version 6.1.0  -  RELEASE   -
|  1> ! MP2 6-31G** opt numfreq
|  2>
|  3> * xyzfile 0 1 monomer-input-coordinates.xyz
|  4>
|  5>                          ****END OF INPUT****
 Total Charge           Charge          ....    0
 Multiplicity           Mult            ....    1
 Number of Electrons    NEL             ....   10
MP2 TOTAL ENERGY:      -56.380781314 Eh
FINAL SINGLE POINT ENERGY       -56.380781314131
MP2 TOTAL ENERGY:      -56.380947740 Eh
FINAL SINGLE POINT ENERGY       -56.380947740088
MP2 TOTAL ENERGY:      -56.380972144 Eh
FINAL SINGLE POINT ENERGY       -56.380972143993
MP2 TOTAL ENERGY:      -56.380984473 Eh
FINAL SINGLE POINT ENERGY       -56.380984472523
                    ***********************HURRAY********************

CARTESIAN COORDINATES (ANGSTROEM)
---------------------------------
  N     -3.354372   -0.361067   -0.089093
  H     -3.194446   -0.444862    0.907348
  H     -2.589001   -0.846902   -0.540403
  H     -4.188340   -0.899856   -0.288331

 Multiplicity           Mult            ....    1
 Number of Electrons    NEL             ....   10
 Basis Dimension        Dim             ....   29

ORBITAL ENERGIES
----------------

  NO   OCC          E(Eh)            E(eV)
   0   2.0000     -15.538595      -422.8267
   1   2.0000      -1.136046       -30.9134
   2   2.0000      -0.619251       -16.8507
   3   2.0000      -0.619222       -16.8499
   4   2.0000      -0.422009       -11.4835
   5   0.0000       0.223316         6.0767
   6   0.0000       0.322579         8.7778
   7   0.0000       0.322581         8.7779
   8   0.0000       0.893341        24.3091
   9   0.0000       0.893377        24.3100

MULLIKEN ATOMIC CHARGES
-----------------------
   0 N :   -0.744801
   1 H :    0.248270
   2 H :    0.248260
   3 H :    0.248271
Sum of atomic charges:   -0.0000000

LOEWDIN ATOMIC CHARGES
----------------------
   0 N :   -0.373483
   1 H :    0.124494
   2 H :    0.124494
   3 H :    0.124495

  Mayer bond orders larger than 0.100000
B(  0-N ,  1-H ) :   0.8899 B(  0-N ,  2-H ) :   0.8899 B(  0-N ,  3-H ) :   0.8899

MP2 TOTAL ENERGY:      -56.380984457 Eh
FINAL SINGLE POINT ENERGY       -56.380984456938

DIPOLE MOMENT
-------------

Method             : MP2
Type of density    : Electron Density
Multiplicity       :   1
Level              : Relaxed density
Irrep              :   0
Energy             :     0.0000000000000000 Eh
Basis              : AO
                                X                 Y                 Z
Electronic contribution:     -0.012834055       0.155352481      -0.048458272
Nuclear contribution   :      0.070439594      -0.854888482       0.266776754
                        -----------------------------------------
Total Dipole Moment    :      0.057605539      -0.699536002       0.218318482
                        -----------------------------------------
Magnitude (a.u.)       :      0.735072769
Magnitude (Debye)      :      1.868406493

VIBRATIONAL FREQUENCIES
-----------------------

Scaling factor for frequencies =  1.000000000  (already applied!)

     0:       0.00 cm**-1
     1:       0.00 cm**-1
     2:       0.00 cm**-1
     3:       0.00 cm**-1
     4:       0.00 cm**-1
     5:       0.00 cm**-1
     6:    1115.83 cm**-1
     7:    1723.20 cm**-1
     8:    1723.59 cm**-1
     9:    3563.81 cm**-1
    10:    3719.88 cm**-1
    11:    3720.03 cm**-1

IR SPECTRUM
-----------

 Mode   freq       eps      Int      T**2         TX        TY        TZ
       cm**-1   L/(mol*cm) km/mol    a.u.
----------------------------------------------------------------------------
  6:   1115.83   0.033489  169.24  0.009366  ( 0.007562 -0.092083  0.028800)
  7:   1723.20   0.003162   15.98  0.000573  ( 0.023808  0.002178  0.001058)
  8:   1723.59   0.003159   15.96  0.000572  (-0.001610  0.006917  0.022836)
  9:   3563.81   0.000049    0.25  0.000004  ( 0.000117 -0.001981  0.000604)
 10:   3719.88   0.000079    0.40  0.000007  ( 0.001397 -0.000504 -0.002095)
 11:   3720.03   0.000076    0.38  0.000006  (-0.002087 -0.000646 -0.001266)

--------------------------
THERMOCHEMISTRY AT 298.15K
--------------------------

Temperature         ...   298.15 K
Pressure            ...     1.00 atm
Total Mass          ...    17.03 AMU
Quasi RRHO          ...     True
Cut-Off Frequency   ...     1.00 cm^-1

Throughout the following assumptions are being made:
  (1) The electronic state is orbitally nondegenerate
  (2) There are no thermally accessible electronically excited states
  (3) Hindered rotations indicated by low frequency modes are not
      treated as such but are treated as vibrations and this may
      cause some error
  (4) All equations used are the standard statistical mechanics
      equations for an ideal gas
  (5) All vibrations are strictly harmonic

freq.    1115.83  E(vib)   ...       0.01
freq.    1723.20  E(vib)   ...       0.00
freq.    1723.59  E(vib)   ...       0.00
freq.    3563.81  E(vib)   ...       0.00
freq.    3719.88  E(vib)   ...       0.00
freq.    3720.03  E(vib)   ...       0.00

------------
INNER ENERGY
------------

The inner energy is: U= E(el) + E(ZPE) + E(vib) + E(rot) + E(trans)
    E(el)   - is the total energy from the electronic structure calculation
              = E(kin-el) + E(nuc-el) + E(el-el) + E(nuc-nuc)
    E(ZPE)  - the the zero temperature vibrational energy from the frequency calculation
    E(vib)  - the the finite temperature correction to E(ZPE) due to population
              of excited vibrational states
    E(rot)  - is the rotational thermal energy
    E(trans)- is the translational thermal energy

Summary of contributions to the inner energy U:
Electronic energy                ...    -56.38098444 Eh
Zero point energy                ...      0.03546275 Eh      22.25 kcal/mol
Thermal vibrational correction   ...      0.00002727 Eh       0.02 kcal/mol
Thermal rotational correction    ...      0.00141627 Eh       0.89 kcal/mol
Thermal translational correction ...      0.00141627 Eh       0.89 kcal/mol
-----------------------------------------------------------------------
Total thermal energy                    -56.34266187 Eh

Summary of corrections to the electronic energy:
(perhaps to be used in another calculation)
Total thermal correction                  0.00285981 Eh       1.79 kcal/mol
Non-thermal (ZPE) correction              0.03546275 Eh      22.25 kcal/mol
-----------------------------------------------------------------------
Total correction                          0.03832257 Eh      24.05 kcal/mol

--------
ENTHALPY
--------

The enthalpy is H = U + kB*T
                kB is Boltzmann's constant
Total thermal energy              ...    -56.34266187 Eh
Thermal Enthalpy correction       ...      0.00094421 Eh       0.59 kcal/mol
-----------------------------------------------------------------------
Total Enthalpy                    ...    -56.34171766 Eh

Note: Rotational entropy computed according to Herzberg
Infrared and Raman Spectra, Chapter V,1, Van Nostrand Reinhold, 1945
Point Group:  Cs, Symmetry Number:   1
Rotational constants in cm-1:     9.931299     9.930150     6.372686

Vibrational entropy computed according to the QRRHO of S. Grimme
Chem.Eur.J. 2012 18 9955 using a reference frequency of 100.0 cm-1

-------
ENTROPY
-------

The entropy contributions are T*S = T*(S(el)+S(vib)+S(rot)+S(trans))
     S(el)   - electronic entropy
     S(vib)  - vibrational entropy
     S(rot)  - rotational entropy
     S(trans)- translational entropy
The entropies will be listed as multiplied by the temperature to get
units of energy

Electronic entropy                ...      0.00000000 Eh      0.00 kcal/mol
Vibrational entropy               ...      0.00003208 Eh      0.02 kcal/mol
Rotational entropy                ...      0.00646900 Eh      4.06 kcal/mol
Translational entropy             ...      0.01636425 Eh     10.27 kcal/mol
-----------------------------------------------------------------------
Final entropy term                ...      0.02286533 Eh     14.35 kcal/mol

In case the symmetry of your molecule has not been determined correctly
or in case you have a reason to use a different symmetry number we print
out the resulting rotational entropy values for sn=1,12:

 non-linear molecules -----------------------------------
|  sn= 1 | S(rot)=       0.00646900 Eh      4.06 kcal/mol|
|  sn= 2 | S(rot)=       0.00581454 Eh      3.65 kcal/mol|
|  sn= 3 | S(rot)=       0.00543171 Eh      3.41 kcal/mol|
|  sn= 4 | S(rot)=       0.00516008 Eh      3.24 kcal/mol|
|  sn= 5 | S(rot)=       0.00494939 Eh      3.11 kcal/mol|
|  sn= 6 | S(rot)=       0.00477725 Eh      3.00 kcal/mol|
|  sn= 7 | S(rot)=       0.00463170 Eh      2.91 kcal/mol|
|  sn= 8 | S(rot)=       0.00450563 Eh      2.83 kcal/mol|
|  sn= 9 | S(rot)=       0.00439442 Eh      2.76 kcal/mol|
|  sn=10 | S(rot)=       0.00429494 Eh      2.70 kcal/mol|
|  sn=11 | S(rot)=       0.00420495 Eh      2.64 kcal/mol|
|  sn=12 | S(rot)=       0.00412279 Eh      2.59 kcal/mol|
 linear molecules ---------------------------------------
|  Dinfh | S(rot)=       0.00357716 Eh      2.24 kcal/mol|
|  Cinfv | S(rot)=       0.00423162 Eh      2.66 kcal/mol|
 --------------------------------------------------------

-------------------
GIBBS FREE ENERGY
-------------------

The Gibbs free energy is G = H - T*S

Total enthalpy                    ...    -56.34171766 Eh
Total entropy correction          ...     -0.02286533 Eh    -14.35 kcal/mol
-----------------------------------------------------------------------
Final Gibbs free energy         ...    -56.36458299 Eh

For completeness - the Gibbs free energy minus the electronic energy
G-E(el)                           ...      0.01640144 Eh     10.29 kcal/mol

                             ****ORCA TERMINATED NORMALLY****
TOTAL RUN TIME: 0 days 0 hours 0 minutes 9 seconds 546 msec
