                         Program Version 6.1.0  -  RELEASE   -
|  1> ! MP2 6-311G** opt numfreq
|  2>
|  3> * xyzfile 0 1 /home/vivek/mm/lab5/6-311/nh3/monomer/monomer-input-coordinates.xyz
|  4>
|  5>                          ****END OF INPUT****
 Total Charge           Charge          ....    0
 Multiplicity           Mult            ....    1
 Number of Electrons    NEL             ....   10
MP2 TOTAL ENERGY:      -56.408643494 Eh
FINAL SINGLE POINT ENERGY       -56.408643494275
MP2 TOTAL ENERGY:      -56.408767790 Eh
FINAL SINGLE POINT ENERGY       -56.408767789953
MP2 TOTAL ENERGY:      -56.408782053 Eh
FINAL SINGLE POINT ENERGY       -56.408782052558
MP2 TOTAL ENERGY:      -56.408789546 Eh
FINAL SINGLE POINT ENERGY       -56.408789546367
                    ***********************HURRAY********************

CARTESIAN COORDINATES (ANGSTROEM)
---------------------------------
  N     -3.354627   -0.357953   -0.090065
  H     -3.194440   -0.446070    0.907144
  H     -2.589359   -0.847872   -0.539741
  H     -4.187734   -0.900793   -0.287818

 Multiplicity           Mult            ....    1
 Number of Electrons    NEL             ....   10
 Basis Dimension        Dim             ....   36

ORBITAL ENERGIES
----------------

  NO   OCC          E(Eh)            E(eV)
   0   2.0000     -15.529851      -422.5887
   1   2.0000      -1.136278       -30.9197
   2   2.0000      -0.620446       -16.8832
   3   2.0000      -0.620418       -16.8824
   4   2.0000      -0.425186       -11.5699
   5   0.0000       0.155846         4.2408
   6   0.0000       0.229833         6.2541
   7   0.0000       0.229836         6.2542
   8   0.0000       0.517019        14.0688
   9   0.0000       0.517043        14.0695

MULLIKEN ATOMIC CHARGES
-----------------------
   0 N :   -0.556533
   1 H :    0.185516
   2 H :    0.185501
   3 H :    0.185517
Sum of atomic charges:    0.0000000

LOEWDIN ATOMIC CHARGES
----------------------
   0 N :   -0.071720
   1 H :    0.023906
   2 H :    0.023908
   3 H :    0.023906

  Mayer bond orders larger than 0.100000
B(  0-N ,  1-H ) :   0.9285 B(  0-N ,  2-H ) :   0.9285 B(  0-N ,  3-H ) :   0.9285

MP2 TOTAL ENERGY:      -56.408789563 Eh
FINAL SINGLE POINT ENERGY       -56.408789562564

DIPOLE MOMENT
-------------

Method             : MP2
Type of density    : Electron Density
Multiplicity       :   1
Level              : Relaxed density
Irrep              :   0
Energy             :     0.0000000000000000 Eh
Basis              : AO
                                X                 Y                 Z
Electronic contribution:     -0.017211975       0.208583156      -0.065070814
Nuclear contribution   :      0.071224410      -0.864496747       0.269774360
                        -----------------------------------------
Total Dipole Moment    :      0.054012435      -0.655913591       0.204703546
                        -----------------------------------------
Magnitude (a.u.)       :      0.689234013
Magnitude (Debye)      :      1.751893635

VIBRATIONAL FREQUENCIES
-----------------------

Scaling factor for frequencies =  1.000000000  (already applied!)

     0:       0.00 cm**-1
     1:       0.00 cm**-1
     2:       0.00 cm**-1
     3:       0.00 cm**-1
     4:       0.00 cm**-1
     5:       0.00 cm**-1
     6:    1128.63 cm**-1
     7:    1676.03 cm**-1
     8:    1676.48 cm**-1
     9:    3525.56 cm**-1
    10:    3667.86 cm**-1
    11:    3668.01 cm**-1

IR SPECTRUM
-----------

 Mode   freq       eps      Int      T**2         TX        TY        TZ
       cm**-1   L/(mol*cm) km/mol    a.u.
----------------------------------------------------------------------------
  6:   1128.63   0.032914  166.33  0.009101  ( 0.007431 -0.090771  0.028391)
  7:   1676.03   0.003313   16.74  0.000617  ( 0.024720  0.002178  0.000976)
  8:   1676.48   0.003321   16.78  0.000618  (-0.001495  0.007131  0.023770)
  9:   3525.56   0.000051    0.26  0.000005  ( 0.000105 -0.002031  0.000638)
 10:   3667.86   0.000059    0.30  0.000005  ( 0.000915 -0.000533 -0.001981)
 11:   3668.01   0.000056    0.28  0.000005  (-0.001978 -0.000488 -0.000792)

--------------------------
THERMOCHEMISTRY AT 298.15K
--------------------------

Temperature         ...   298.15 K
Pressure            ...     1.00 atm
Total Mass          ...    17.03 AMU
Quasi RRHO          ...     True
Cut-Off Frequency   ...     1.00 cm^-1

Throughout the following assumptions are being made:
  (1) The electronic state is orbitally nondegenerate
  (2) There are no thermally accessible electronically excited states
  (3) Hindered rotations indicated by low frequency modes are not
      treated as such but are treated as vibrations and this may
      cause some error
  (4) All equations used are the standard statistical mechanics
      equations for an ideal gas
  (5) All vibrations are strictly harmonic

freq.    1128.63  E(vib)   ...       0.01
freq.    1676.03  E(vib)   ...       0.00
freq.    1676.48  E(vib)   ...       0.00
freq.    3525.56  E(vib)   ...       0.00
freq.    3667.86  E(vib)   ...       0.00
freq.    3668.01  E(vib)   ...       0.00

------------
INNER ENERGY
------------

The inner energy is: U= E(el) + E(ZPE) + E(vib) + E(rot) + E(trans)
    E(el)   - is the total energy from the electronic structure calculation
              = E(kin-el) + E(nuc-el) + E(el-el) + E(nuc-nuc)
    E(ZPE)  - the the zero temperature vibrational energy from the frequency calculation
    E(vib)  - the the finite temperature correction to E(ZPE) due to population
              of excited vibrational states
    E(rot)  - is the rotational thermal energy
    E(trans)- is the translational thermal energy

Summary of contributions to the inner energy U:
Electronic energy                ...    -56.40878954 Eh
Zero point energy                ...      0.03495293 Eh      21.93 kcal/mol
Thermal vibrational correction   ...      0.00002696 Eh       0.02 kcal/mol
Thermal rotational correction    ...      0.00141627 Eh       0.89 kcal/mol
Thermal translational correction ...      0.00141627 Eh       0.89 kcal/mol
-----------------------------------------------------------------------
Total thermal energy                    -56.37097710 Eh

Summary of corrections to the electronic energy:
(perhaps to be used in another calculation)
Total thermal correction                  0.00285951 Eh       1.79 kcal/mol
Non-thermal (ZPE) correction              0.03495293 Eh      21.93 kcal/mol
-----------------------------------------------------------------------
Total correction                          0.03781244 Eh      23.73 kcal/mol

--------
ENTHALPY
--------

The enthalpy is H = U + kB*T
                kB is Boltzmann's constant
Total thermal energy              ...    -56.37097710 Eh
Thermal Enthalpy correction       ...      0.00094421 Eh       0.59 kcal/mol
-----------------------------------------------------------------------
Total Enthalpy                    ...    -56.37003289 Eh

Note: Rotational entropy computed according to Herzberg
Infrared and Raman Spectra, Chapter V,1, Van Nostrand Reinhold, 1945
Point Group:  Cs, Symmetry Number:   1
Rotational constants in cm-1:     9.891167     9.890059     6.380351

Vibrational entropy computed according to the QRRHO of S. Grimme
Chem.Eur.J. 2012 18 9955 using a reference frequency of 100.0 cm-1

-------
ENTROPY
-------

The entropy contributions are T*S = T*(S(el)+S(vib)+S(rot)+S(trans))
     S(el)   - electronic entropy
     S(vib)  - vibrational entropy
     S(rot)  - rotational entropy
     S(trans)- translational entropy
The entropies will be listed as multiplied by the temperature to get
units of energy

Electronic entropy                ...      0.00000000 Eh      0.00 kcal/mol
Vibrational entropy               ...      0.00003163 Eh      0.02 kcal/mol
Rotational entropy                ...      0.00647225 Eh      4.06 kcal/mol
Translational entropy             ...      0.01636425 Eh     10.27 kcal/mol
-----------------------------------------------------------------------
Final entropy term                ...      0.02286813 Eh     14.35 kcal/mol

In case the symmetry of your molecule has not been determined correctly
or in case you have a reason to use a different symmetry number we print
out the resulting rotational entropy values for sn=1,12:

 non-linear molecules -----------------------------------
|  sn= 1 | S(rot)=       0.00647225 Eh      4.06 kcal/mol|
|  sn= 2 | S(rot)=       0.00581779 Eh      3.65 kcal/mol|
|  sn= 3 | S(rot)=       0.00543496 Eh      3.41 kcal/mol|
|  sn= 4 | S(rot)=       0.00516334 Eh      3.24 kcal/mol|
|  sn= 5 | S(rot)=       0.00495265 Eh      3.11 kcal/mol|
|  sn= 6 | S(rot)=       0.00478050 Eh      3.00 kcal/mol|
|  sn= 7 | S(rot)=       0.00463496 Eh      2.91 kcal/mol|
|  sn= 8 | S(rot)=       0.00450888 Eh      2.83 kcal/mol|
|  sn= 9 | S(rot)=       0.00439767 Eh      2.76 kcal/mol|
|  sn=10 | S(rot)=       0.00429819 Eh      2.70 kcal/mol|
|  sn=11 | S(rot)=       0.00420820 Eh      2.64 kcal/mol|
|  sn=12 | S(rot)=       0.00412605 Eh      2.59 kcal/mol|
 linear molecules ---------------------------------------
|  Dinfh | S(rot)=       0.00357603 Eh      2.24 kcal/mol|
|  Cinfv | S(rot)=       0.00423048 Eh      2.65 kcal/mol|
 --------------------------------------------------------

-------------------
GIBBS FREE ENERGY
-------------------

The Gibbs free energy is G = H - T*S

Total enthalpy                    ...    -56.37003289 Eh
Total entropy correction          ...     -0.02286813 Eh    -14.35 kcal/mol
-----------------------------------------------------------------------
Final Gibbs free energy         ...    -56.39290103 Eh

For completeness - the Gibbs free energy minus the electronic energy
G-E(el)                           ...      0.01588851 Eh      9.97 kcal/mol

                             ****ORCA TERMINATED NORMALLY****
TOTAL RUN TIME: 0 days 0 hours 1 minutes 56 seconds 257 msec
