                         Program Version 6.1.0  -  RELEASE   -
|  1> ! MP2 6-31G** opt numfreq
|  2>
|  3> * xyzfile 0 1 monomer-input-coordinates.xyz
|  4>
|  5>                          ****END OF INPUT****
 Total Charge           Charge          ....    0
 Multiplicity           Mult            ....    1
 Number of Electrons    NEL             ....   10
MP2 TOTAL ENERGY:     -100.191952692 Eh
FINAL SINGLE POINT ENERGY      -100.191952692131
MP2 TOTAL ENERGY:     -100.192292798 Eh
FINAL SINGLE POINT ENERGY      -100.192292797540
MP2 TOTAL ENERGY:     -100.192299818 Eh
FINAL SINGLE POINT ENERGY      -100.192299817575
                    ***********************HURRAY********************

CARTESIAN COORDINATES (ANGSTROEM)
---------------------------------
  F     -1.438453    2.408000    0.112560
  H     -0.609990    2.313832    0.504474

 Multiplicity           Mult            ....    1
 Number of Electrons    NEL             ....   10
 Basis Dimension        Dim             ....   19

ORBITAL ENERGIES
----------------

  NO   OCC          E(Eh)            E(eV)
   0   2.0000     -26.272869      -714.9211
   1   2.0000      -1.577029       -42.9131
   2   2.0000      -0.741643       -20.1811
   3   2.0000      -0.626605       -17.0508
   4   2.0000      -0.626605       -17.0508
   5   0.0000       0.219773         5.9803
   6   0.0000       1.030061        28.0294
   7   0.0000       1.488730        40.5104
   8   0.0000       1.488730        40.5104
   9   0.0000       1.535215        41.7753

MULLIKEN ATOMIC CHARGES
-----------------------
   0 F :   -0.391144
   1 H :    0.391144
Sum of atomic charges:    0.0000000

LOEWDIN ATOMIC CHARGES
----------------------
   0 F :   -0.197643
   1 H :    0.197643

  Mayer bond orders larger than 0.100000
B(  0-F ,  1-H ) :   0.8241

MP2 TOTAL ENERGY:     -100.192299768 Eh
FINAL SINGLE POINT ENERGY      -100.192299767556

DIPOLE MOMENT
-------------

Method             : MP2
Type of density    : Electron Density
Multiplicity       :   1
Level              : Relaxed density
Irrep              :   0
Energy             :     0.0000000000000000 Eh
Basis              : AO
                                X                 Y                 Z
Electronic contribution:     -0.108999040       0.012389567      -0.051563393
Nuclear contribution   :      0.776758309      -0.088291589       0.367455475
                        -----------------------------------------
Total Dipole Moment    :      0.667759270      -0.075902023       0.315892083
                        -----------------------------------------
Magnitude (a.u.)       :      0.742597716
Magnitude (Debye)      :      1.887533388

VIBRATIONAL FREQUENCIES
-----------------------

Scaling factor for frequencies =  1.000000000  (already applied!)

     0:       0.00 cm**-1
     1:       0.00 cm**-1
     2:       0.00 cm**-1
     3:       0.00 cm**-1
     4:       0.00 cm**-1
     5:    4188.37 cm**-1

IR SPECTRUM
-----------

 Mode   freq       eps      Int      T**2         TX        TY        TZ
       cm**-1   L/(mol*cm) km/mol    a.u.
----------------------------------------------------------------------------
  5:   4188.37   0.016539   83.58  0.001232  ( 0.031584 -0.003573  0.014898)

--------------------------
THERMOCHEMISTRY AT 298.15K
--------------------------

Temperature         ...   298.15 K
Pressure            ...     1.00 atm
Total Mass          ...    20.01 AMU
Quasi RRHO          ...     True
Cut-Off Frequency   ...     1.00 cm^-1
The molecule is recognized as being linear

Throughout the following assumptions are being made:
  (1) The electronic state is orbitally nondegenerate
  (2) There are no thermally accessible electronically excited states
  (3) Hindered rotations indicated by low frequency modes are not
      treated as such but are treated as vibrations and this may
      cause some error
  (4) All equations used are the standard statistical mechanics
      equations for an ideal gas
  (5) All vibrations are strictly harmonic

freq.    4188.37  E(vib)   ...       0.00

------------
INNER ENERGY
------------

The inner energy is: U= E(el) + E(ZPE) + E(vib) + E(rot) + E(trans)
    E(el)   - is the total energy from the electronic structure calculation
              = E(kin-el) + E(nuc-el) + E(el-el) + E(nuc-nuc)
    E(ZPE)  - the the zero temperature vibrational energy from the frequency calculation
    E(vib)  - the the finite temperature correction to E(ZPE) due to population
              of excited vibrational states
    E(rot)  - is the rotational thermal energy
    E(trans)- is the translational thermal energy

Summary of contributions to the inner energy U:
Electronic energy                ...   -100.19229983 Eh
Zero point energy                ...      0.00954181 Eh       5.99 kcal/mol
Thermal vibrational correction   ...      0.00000000 Eh       0.00 kcal/mol
Thermal rotational correction    ...      0.00094418 Eh       0.59 kcal/mol
Thermal translational correction ...      0.00141627 Eh       0.89 kcal/mol
-----------------------------------------------------------------------
Total thermal energy                   -100.18039757 Eh

Summary of corrections to the electronic energy:
(perhaps to be used in another calculation)
Total thermal correction                  0.00236045 Eh       1.48 kcal/mol
Non-thermal (ZPE) correction              0.00954181 Eh       5.99 kcal/mol
-----------------------------------------------------------------------
Total correction                          0.01190226 Eh       7.47 kcal/mol

--------
ENTHALPY
--------

The enthalpy is H = U + kB*T
                kB is Boltzmann's constant
Total thermal energy              ...   -100.18039757 Eh
Thermal Enthalpy correction       ...      0.00094421 Eh       0.59 kcal/mol
-----------------------------------------------------------------------
Total Enthalpy                    ...   -100.17945336 Eh

Note: Rotational entropy computed according to Herzberg
Infrared and Raman Spectra, Chapter V,1, Van Nostrand Reinhold, 1945
Point Group:  C(inf)v, Symmetry Number:   1
Rotational constants in cm-1:     0.000000    20.747956    20.747956

Vibrational entropy computed according to the QRRHO of S. Grimme
Chem.Eur.J. 2012 18 9955 using a reference frequency of 100.0 cm-1

-------
ENTROPY
-------

The entropy contributions are T*S = T*(S(el)+S(vib)+S(rot)+S(trans))
     S(el)   - electronic entropy
     S(vib)  - vibrational entropy
     S(rot)  - rotational entropy
     S(trans)- translational entropy
The entropies will be listed as multiplied by the temperature to get
units of energy

Electronic entropy                ...      0.00000000 Eh      0.00 kcal/mol
Vibrational entropy               ...     -0.00000000 Eh     -0.00 kcal/mol
Rotational entropy                ...      0.00311708 Eh      1.96 kcal/mol
Translational entropy             ...      0.01659227 Eh     10.41 kcal/mol
-----------------------------------------------------------------------
Final entropy term                ...      0.01970935 Eh     12.37 kcal/mol

-------------------
GIBBS FREE ENERGY
-------------------

The Gibbs free energy is G = H - T*S

Total enthalpy                    ...   -100.17945336 Eh
Total entropy correction          ...     -0.01970935 Eh    -12.37 kcal/mol
-----------------------------------------------------------------------
Final Gibbs free energy         ...   -100.19916271 Eh

For completeness - the Gibbs free energy minus the electronic energy
G-E(el)                           ...     -0.00686288 Eh     -4.31 kcal/mol

                             ****ORCA TERMINATED NORMALLY****
TOTAL RUN TIME: 0 days 0 hours 0 minutes 3 seconds 322 msec
