                         Program Version 6.1.0  -  RELEASE   -
|  1> ! MP2 6-311G** opt numfreq
|  2>
|  3> * xyzfile 0 1 /home/vivek/mm/lab5/6-311/water/dimer/dimer-input-coordinates.xyz
|  4>
|  5>                          ****END OF INPUT****
 Total Charge           Charge          ....    0
 Multiplicity           Mult            ....    1
 Number of Electrons    NEL             ....   20
MP2 TOTAL ENERGY:     -152.538834631 Eh
FINAL SINGLE POINT ENERGY      -152.538834630785
MP2 TOTAL ENERGY:     -152.538994711 Eh
FINAL SINGLE POINT ENERGY      -152.538994711105
MP2 TOTAL ENERGY:     -152.539020489 Eh
FINAL SINGLE POINT ENERGY      -152.539020489055
MP2 TOTAL ENERGY:     -152.539031786 Eh
FINAL SINGLE POINT ENERGY      -152.539031786322
MP2 TOTAL ENERGY:     -152.539033865 Eh
FINAL SINGLE POINT ENERGY      -152.539033865060
MP2 TOTAL ENERGY:     -152.539041397 Eh
FINAL SINGLE POINT ENERGY      -152.539041397138
FINAL SINGLE POINT ENERGY      -152.539047096994
FINAL SINGLE POINT ENERGY      -152.539057337368
FINAL SINGLE POINT ENERGY      -152.539069384131
FINAL SINGLE POINT ENERGY      -152.539081694091
FINAL SINGLE POINT ENERGY      -152.539107696507
FINAL SINGLE POINT ENERGY      -152.539110433342
FINAL SINGLE POINT ENERGY      -152.539115772456
FINAL SINGLE POINT ENERGY      -152.539124101723
MP2 TOTAL ENERGY:     -152.539134964 Eh
FINAL SINGLE POINT ENERGY      -152.539134964237
MP2 TOTAL ENERGY:     -152.539143170 Eh
FINAL SINGLE POINT ENERGY      -152.539143170187
MP2 TOTAL ENERGY:     -152.539145431 Eh
FINAL SINGLE POINT ENERGY      -152.539145431365
MP2 TOTAL ENERGY:     -152.539146028 Eh
FINAL SINGLE POINT ENERGY      -152.539146027684
MP2 TOTAL ENERGY:     -152.539146402 Eh
FINAL SINGLE POINT ENERGY      -152.539146401874
                    ***********************HURRAY********************

CARTESIAN COORDINATES (ANGSTROEM)
---------------------------------
  O     -1.987748    1.749234   -0.396019
  H     -1.826051    1.151044    0.333231
  H     -1.430897    2.502910   -0.172214
  O     -0.471319    4.147260    0.199450
  H     -1.136984    4.836476    0.245362
  H      0.052774    4.396460   -0.564278

 Multiplicity           Mult            ....    1
 Number of Electrons    NEL             ....   20
 Basis Dimension        Dim             ....   60

ORBITAL ENERGIES
----------------

  NO   OCC          E(Eh)            E(eV)
   0   2.0000     -20.579917      -560.0080
   1   2.0000     -20.511620      -558.1496
   2   2.0000      -1.375198       -37.4210
   3   2.0000      -1.310316       -35.6555
   4   2.0000      -0.734838       -19.9959
   5   2.0000      -0.678639       -18.4667
   6   2.0000      -0.608926       -16.5697
   7   2.0000      -0.552906       -15.0453
   8   2.0000      -0.522180       -14.2092
   9   2.0000      -0.469849       -12.7852
  10   0.0000       0.130505         3.5512
  11   0.0000       0.194938         5.3045
  12   0.0000       0.203038         5.5249
  13   0.0000       0.332423         9.0457
  14   0.0000       0.534384        14.5413

MULLIKEN ATOMIC CHARGES
-----------------------
   0 O :   -0.516654
   1 H :    0.226113
   2 H :    0.243612
   3 O :   -0.468105
   4 H :    0.257401
   5 H :    0.257632
Sum of atomic charges:   -0.0000000

LOEWDIN ATOMIC CHARGES
----------------------
   0 O :   -0.087259
   1 H :    0.023022
   2 H :   -0.004731
   3 O :   -0.015891
   4 H :    0.042333
   5 H :    0.042527

  Mayer bond orders larger than 0.100000
B(  0-O ,  1-H ) :   0.9358 B(  0-O ,  2-H ) :   0.8787 B(  3-O ,  4-H ) :   0.9100
B(  3-O ,  5-H ) :   0.9105

MP2 TOTAL ENERGY:     -152.539146499 Eh
FINAL SINGLE POINT ENERGY      -152.539146499480

DIPOLE MOMENT
-------------

Method             : MP2
Type of density    : Electron Density
Multiplicity       :   1
Level              : Relaxed density
Irrep              :   0
Energy             :     0.0000000000000000 Eh
Basis              : AO
                                X                 Y                 Z
Electronic contribution:      0.030892660       0.056262133      -0.010069880
Nuclear contribution   :      0.480253044       0.910520031       0.195802363
                        -----------------------------------------
Total Dipole Moment    :      0.511145705       0.966782164       0.185732484
                        -----------------------------------------
Magnitude (a.u.)       :      1.109249404
Magnitude (Debye)      :      2.819487916

VIBRATIONAL FREQUENCIES
-----------------------

Scaling factor for frequencies =  1.000000000  (already applied!)

     0:       0.00 cm**-1
     1:       0.00 cm**-1
     2:       0.00 cm**-1
     3:       0.00 cm**-1
     4:       0.00 cm**-1
     5:       0.00 cm**-1
     6:      82.35 cm**-1
     7:     150.06 cm**-1
     8:     161.18 cm**-1
     9:     190.48 cm**-1
    10:     383.58 cm**-1
    11:     652.62 cm**-1
    12:    1657.41 cm**-1
    13:    1702.94 cm**-1
    14:    3835.78 cm**-1
    15:    3892.66 cm**-1
    16:    3983.90 cm**-1
    17:    3998.52 cm**-1

IR SPECTRUM
-----------

 Mode   freq       eps      Int      T**2         TX        TY        TZ
       cm**-1   L/(mol*cm) km/mol    a.u.
----------------------------------------------------------------------------
  6:     82.35   0.008711   44.02  0.033011  ( 0.172450  0.009910 -0.056333)
  7:    150.06   0.059605  301.22  0.123958  ( 0.220119  0.255846  0.100242)
  8:    161.18   0.033392  168.75  0.064653  ( 0.147550 -0.145044 -0.147798)
  9:    190.48   0.001087    5.49  0.001780  ( 0.002393  0.031603  0.027855)
 10:    383.58   0.016228   82.01  0.013203  ( 0.047161 -0.016330  0.103498)
 11:    652.62   0.030625  154.77  0.014644  (-0.092503  0.049853  0.060015)
 12:   1657.41   0.012851   64.94  0.002420  (-0.008395  0.036515 -0.031871)
 13:   1702.94   0.008400   42.45  0.001539  (-0.023513 -0.007334 -0.030538)
 14:   3835.78   0.045665  230.77  0.003715  (-0.029933 -0.052640 -0.006940)
 15:   3892.66   0.002452   12.39  0.000197  ( 0.006119 -0.006162  0.011006)
 16:   3983.90   0.012933   65.36  0.001013  ( 0.010692  0.029282 -0.006428)
 17:   3998.52   0.011778   59.52  0.000919  (-0.023856  0.008898  0.016460)

--------------------------
THERMOCHEMISTRY AT 298.15K
--------------------------

Temperature         ...   298.15 K
Pressure            ...     1.00 atm
Total Mass          ...    36.03 AMU
Quasi RRHO          ...     True
Cut-Off Frequency   ...     1.00 cm^-1

Throughout the following assumptions are being made:
  (1) The electronic state is orbitally nondegenerate
  (2) There are no thermally accessible electronically excited states
  (3) Hindered rotations indicated by low frequency modes are not
      treated as such but are treated as vibrations and this may
      cause some error
  (4) All equations used are the standard statistical mechanics
      equations for an ideal gas
  (5) All vibrations are strictly harmonic

freq.      82.35  E(vib)   ...       0.48
freq.     150.06  E(vib)   ...       0.40
freq.     161.18  E(vib)   ...       0.39
freq.     190.48  E(vib)   ...       0.36
freq.     383.58  E(vib)   ...       0.20
freq.     652.62  E(vib)   ...       0.08
freq.    1657.41  E(vib)   ...       0.00
freq.    1702.94  E(vib)   ...       0.00
freq.    3835.78  E(vib)   ...       0.00
freq.    3892.66  E(vib)   ...       0.00
freq.    3983.90  E(vib)   ...       0.00
freq.    3998.52  E(vib)   ...       0.00

------------
INNER ENERGY
------------

The inner energy is: U= E(el) + E(ZPE) + E(vib) + E(rot) + E(trans)
    E(el)   - is the total energy from the electronic structure calculation
              = E(kin-el) + E(nuc-el) + E(el-el) + E(nuc-nuc)
    E(ZPE)  - the the zero temperature vibrational energy from the frequency calculation
    E(vib)  - the the finite temperature correction to E(ZPE) due to population
              of excited vibrational states
    E(rot)  - is the rotational thermal energy
    E(trans)- is the translational thermal energy

Summary of contributions to the inner energy U:
Electronic energy                ...   -152.53914650 Eh
Zero point energy                ...      0.04713864 Eh      29.58 kcal/mol
Thermal vibrational correction   ...      0.00307578 Eh       1.93 kcal/mol
Thermal rotational correction    ...      0.00141627 Eh       0.89 kcal/mol
Thermal translational correction ...      0.00141627 Eh       0.89 kcal/mol
-----------------------------------------------------------------------
Total thermal energy                   -152.48609955 Eh

Summary of corrections to the electronic energy:
(perhaps to be used in another calculation)
Total thermal correction                  0.00590832 Eh       3.71 kcal/mol
Non-thermal (ZPE) correction              0.04713864 Eh      29.58 kcal/mol
-----------------------------------------------------------------------
Total correction                          0.05304696 Eh      33.29 kcal/mol

--------
ENTHALPY
--------

The enthalpy is H = U + kB*T
                kB is Boltzmann's constant
Total thermal energy              ...   -152.48609955 Eh
Thermal Enthalpy correction       ...      0.00094421 Eh       0.59 kcal/mol
-----------------------------------------------------------------------
Total Enthalpy                    ...   -152.48515534 Eh

Note: Only C1 symmetry has been detected, increase convergence thresholds
      if your molecule has a higher symmetry. Symmetry factor of 1.0 is
      used for the rotational entropy correction.

Note: Rotational entropy computed according to Herzberg
Infrared and Raman Spectra, Chapter V,1, Van Nostrand Reinhold, 1945
Point Group:  C1, Symmetry Number:   1
Rotational constants in cm-1:     7.030712     0.217011     0.216627

Vibrational entropy computed according to the QRRHO of S. Grimme
Chem.Eur.J. 2012 18 9955 using a reference frequency of 100.0 cm-1

-------
ENTROPY
-------

The entropy contributions are T*S = T*(S(el)+S(vib)+S(rot)+S(trans))
     S(el)   - electronic entropy
     S(vib)  - vibrational entropy
     S(rot)  - rotational entropy
     S(trans)- translational entropy
The entropies will be listed as multiplied by the temperature to get
units of energy

Electronic entropy                ...      0.00000000 Eh      0.00 kcal/mol
Vibrational entropy               ...      0.00573599 Eh      3.60 kcal/mol
Rotational entropy                ...      0.01003346 Eh      6.30 kcal/mol
Translational entropy             ...      0.01742549 Eh     10.93 kcal/mol
-----------------------------------------------------------------------
Final entropy term                ...      0.03319493 Eh     20.83 kcal/mol

In case the symmetry of your molecule has not been determined correctly
or in case you have a reason to use a different symmetry number we print
out the resulting rotational entropy values for sn=1,12:

 non-linear molecules -----------------------------------
|  sn= 1 | S(rot)=       0.01003346 Eh      6.30 kcal/mol|
|  sn= 2 | S(rot)=       0.00937901 Eh      5.89 kcal/mol|
|  sn= 3 | S(rot)=       0.00899617 Eh      5.65 kcal/mol|
|  sn= 4 | S(rot)=       0.00872455 Eh      5.47 kcal/mol|
|  sn= 5 | S(rot)=       0.00851386 Eh      5.34 kcal/mol|
|  sn= 6 | S(rot)=       0.00834172 Eh      5.23 kcal/mol|
|  sn= 7 | S(rot)=       0.00819617 Eh      5.14 kcal/mol|
|  sn= 8 | S(rot)=       0.00807009 Eh      5.06 kcal/mol|
|  sn= 9 | S(rot)=       0.00795888 Eh      4.99 kcal/mol|
|  sn=10 | S(rot)=       0.00785941 Eh      4.93 kcal/mol|
|  sn=11 | S(rot)=       0.00776942 Eh      4.88 kcal/mol|
|  sn=12 | S(rot)=       0.00768726 Eh      4.82 kcal/mol|
 linear molecules ---------------------------------------
|  Dinfh | S(rot)=       0.00677001 Eh      4.25 kcal/mol|
|  Cinfv | S(rot)=       0.00742446 Eh      4.66 kcal/mol|
 --------------------------------------------------------

-------------------
GIBBS FREE ENERGY
-------------------

The Gibbs free energy is G = H - T*S

Total enthalpy                    ...   -152.48515534 Eh
Total entropy correction          ...     -0.03319493 Eh    -20.83 kcal/mol
-----------------------------------------------------------------------
Final Gibbs free energy         ...   -152.51835027 Eh

For completeness - the Gibbs free energy minus the electronic energy
G-E(el)                           ...      0.02079623 Eh     13.05 kcal/mol

                             ****ORCA TERMINATED NORMALLY****
TOTAL RUN TIME: 0 days 0 hours 11 minutes 28 seconds 304 msec
