                         Program Version 6.1.0  -  RELEASE   -
|  1> ! MP2 6-31G** opt numfreq
|  2>
|  3> * xyzfile 0 1 monomer-input-coordinates.xyz
|  4>
|  5>                          ****END OF INPUT****
 Total Charge           Charge          ....    0
 Multiplicity           Mult            ....    1
 Number of Electrons    NEL             ....   10
MP2 TOTAL ENERGY:      -76.217240226 Eh
FINAL SINGLE POINT ENERGY       -76.217240226405
MP2 TOTAL ENERGY:      -76.217279329 Eh
FINAL SINGLE POINT ENERGY       -76.217279328932
MP2 TOTAL ENERGY:      -76.217279865 Eh
FINAL SINGLE POINT ENERGY       -76.217279864894
                    ***********************HURRAY********************

CARTESIAN COORDINATES (ANGSTROEM)
---------------------------------
  O     -1.955623    1.821530   -0.394006
  H     -1.904894    1.152530    0.294796
  H     -1.338846    2.500037   -0.104442

 Multiplicity           Mult            ....    1
 Number of Electrons    NEL             ....   10
 Basis Dimension        Dim             ....   24

ORBITAL ENERGIES
----------------

  NO   OCC          E(Eh)            E(eV)
   0   2.0000     -20.558799      -559.4334
   1   2.0000      -1.338095       -36.4114
   2   2.0000      -0.699569       -19.0362
   3   2.0000      -0.568814       -15.4782
   4   2.0000      -0.496503       -13.5105
   5   0.0000       0.214615         5.8400
   6   0.0000       0.303871         8.2687
   7   0.0000       1.000529        27.2258
   8   0.0000       1.087156        29.5830
   9   0.0000       1.169338        31.8193

MULLIKEN ATOMIC CHARGES
-----------------------
   0 O :   -0.647625
   1 H :    0.323812
   2 H :    0.323814
Sum of atomic charges:    0.0000000

LOEWDIN ATOMIC CHARGES
----------------------
   0 O :   -0.329964
   1 H :    0.164974
   2 H :    0.164990

  Mayer bond orders larger than 0.100000
B(  0-O ,  1-H ) :   0.8538 B(  0-O ,  2-H ) :   0.8538

MP2 TOTAL ENERGY:      -76.217279953 Eh
FINAL SINGLE POINT ENERGY       -76.217279953095

DIPOLE MOMENT
-------------

Method             : MP2
Type of density    : Electron Density
Multiplicity       :   1
Level              : Relaxed density
Irrep              :   0
Energy             :     0.0000000000000000 Eh
Basis              : AO
                                X                 Y                 Z
Electronic contribution:     -0.087710426      -0.001256584      -0.128550472
Nuclear contribution   :      0.555606025       0.007912687       0.814352616
                        -----------------------------------------
Total Dipole Moment    :      0.467895599       0.006656102       0.685802144
                        -----------------------------------------
Magnitude (a.u.)       :      0.830238024
Magnitude (Debye)      :      2.110297348

VIBRATIONAL FREQUENCIES
-----------------------

Scaling factor for frequencies =  1.000000000  (already applied!)

     0:       0.00 cm**-1
     1:       0.00 cm**-1
     2:       0.00 cm**-1
     3:       0.00 cm**-1
     4:       0.00 cm**-1
     5:       0.00 cm**-1
     6:    1679.86 cm**-1
     7:    3892.95 cm**-1
     8:    4032.74 cm**-1

IR SPECTRUM
-----------

 Mode   freq       eps      Int      T**2         TX        TY        TZ
       cm**-1   L/(mol*cm) km/mol    a.u.
----------------------------------------------------------------------------
  6:   1679.86   0.015883   80.26  0.002950  ( 0.030522  0.000516  0.044929)
  7:   3892.95   0.000856    4.33  0.000069  (-0.004722  0.000001 -0.006807)
  8:   4032.74   0.006797   34.35  0.000526  (-0.008627 -0.020359  0.006087)

--------------------------
THERMOCHEMISTRY AT 298.15K
--------------------------

Temperature         ...   298.15 K
Pressure            ...     1.00 atm
Total Mass          ...    18.02 AMU
Quasi RRHO          ...     True
Cut-Off Frequency   ...     1.00 cm^-1

Throughout the following assumptions are being made:
  (1) The electronic state is orbitally nondegenerate
  (2) There are no thermally accessible electronically excited states
  (3) Hindered rotations indicated by low frequency modes are not
      treated as such but are treated as vibrations and this may
      cause some error
  (4) All equations used are the standard statistical mechanics
      equations for an ideal gas
  (5) All vibrations are strictly harmonic

freq.    1679.86  E(vib)   ...       0.00
freq.    3892.95  E(vib)   ...       0.00
freq.    4032.74  E(vib)   ...       0.00

------------
INNER ENERGY
------------

The inner energy is: U= E(el) + E(ZPE) + E(vib) + E(rot) + E(trans)
    E(el)   - is the total energy from the electronic structure calculation
              = E(kin-el) + E(nuc-el) + E(el-el) + E(nuc-nuc)
    E(ZPE)  - the the zero temperature vibrational energy from the frequency calculation
    E(vib)  - the the finite temperature correction to E(ZPE) due to population
              of excited vibrational states
    E(rot)  - is the rotational thermal energy
    E(trans)- is the translational thermal energy

Summary of contributions to the inner energy U:
Electronic energy                ...    -76.21727993 Eh
Zero point energy                ...      0.02188306 Eh      13.73 kcal/mol
Thermal vibrational correction   ...      0.00000231 Eh       0.00 kcal/mol
Thermal rotational correction    ...      0.00141627 Eh       0.89 kcal/mol
Thermal translational correction ...      0.00141627 Eh       0.89 kcal/mol
-----------------------------------------------------------------------
Total thermal energy                    -76.19256202 Eh

Summary of corrections to the electronic energy:
(perhaps to be used in another calculation)
Total thermal correction                  0.00283485 Eh       1.78 kcal/mol
Non-thermal (ZPE) correction              0.02188306 Eh      13.73 kcal/mol
-----------------------------------------------------------------------
Total correction                          0.02471791 Eh      15.51 kcal/mol

--------
ENTHALPY
--------

The enthalpy is H = U + kB*T
                kB is Boltzmann's constant
Total thermal energy              ...    -76.19256202 Eh
Thermal Enthalpy correction       ...      0.00094421 Eh       0.59 kcal/mol
-----------------------------------------------------------------------
Total Enthalpy                    ...    -76.19161781 Eh

Note: Rotational entropy computed according to Herzberg
Infrared and Raman Spectra, Chapter V,1, Van Nostrand Reinhold, 1945
Point Group:  C2v, Symmetry Number:   2
Rotational constants in cm-1:    26.846983    14.570505     9.444660

Vibrational entropy computed according to the QRRHO of S. Grimme
Chem.Eur.J. 2012 18 9955 using a reference frequency of 100.0 cm-1

-------
ENTROPY
-------

The entropy contributions are T*S = T*(S(el)+S(vib)+S(rot)+S(trans))
     S(el)   - electronic entropy
     S(vib)  - vibrational entropy
     S(rot)  - rotational entropy
     S(trans)- translational entropy
The entropies will be listed as multiplied by the temperature to get
units of energy

Electronic entropy                ...      0.00000000 Eh      0.00 kcal/mol
Vibrational entropy               ...      0.00000259 Eh      0.00 kcal/mol
Rotational entropy                ...      0.00497832 Eh      3.12 kcal/mol
Translational entropy             ...      0.01644380 Eh     10.32 kcal/mol
-----------------------------------------------------------------------
Final entropy term                ...      0.02142471 Eh     13.44 kcal/mol

In case the symmetry of your molecule has not been determined correctly
or in case you have a reason to use a different symmetry number we print
out the resulting rotational entropy values for sn=1,12:

 non-linear molecules -----------------------------------
|  sn= 1 | S(rot)=       0.00563277 Eh      3.53 kcal/mol|
|  sn= 2 | S(rot)=       0.00497832 Eh      3.12 kcal/mol|
|  sn= 3 | S(rot)=       0.00459549 Eh      2.88 kcal/mol|
|  sn= 4 | S(rot)=       0.00432386 Eh      2.71 kcal/mol|
|  sn= 5 | S(rot)=       0.00411317 Eh      2.58 kcal/mol|
|  sn= 6 | S(rot)=       0.00394103 Eh      2.47 kcal/mol|
|  sn= 7 | S(rot)=       0.00379548 Eh      2.38 kcal/mol|
|  sn= 8 | S(rot)=       0.00366941 Eh      2.30 kcal/mol|
|  sn= 9 | S(rot)=       0.00355820 Eh      2.23 kcal/mol|
|  sn=10 | S(rot)=       0.00345872 Eh      2.17 kcal/mol|
|  sn=11 | S(rot)=       0.00336873 Eh      2.11 kcal/mol|
|  sn=12 | S(rot)=       0.00328657 Eh      2.06 kcal/mol|
 linear molecules ---------------------------------------
|  Dinfh | S(rot)=       0.00320570 Eh      2.01 kcal/mol|
|  Cinfv | S(rot)=       0.00386015 Eh      2.42 kcal/mol|
 --------------------------------------------------------

-------------------
GIBBS FREE ENERGY
-------------------

The Gibbs free energy is G = H - T*S

Total enthalpy                    ...    -76.19161781 Eh
Total entropy correction          ...     -0.02142471 Eh    -13.44 kcal/mol
-----------------------------------------------------------------------
Final Gibbs free energy         ...    -76.21304252 Eh

For completeness - the Gibbs free energy minus the electronic energy
G-E(el)                           ...      0.00423741 Eh      2.66 kcal/mol

                             ****ORCA TERMINATED NORMALLY****
TOTAL RUN TIME: 0 days 0 hours 0 minutes 5 seconds 949 msec
