                         Program Version 6.1.0  -  RELEASE   -
|  1> ! MP2 6-31G** opt numfreq
|  2>
|  3> * xyzfile 0 1 dimer-input-coordinates.xyz
|  4>
|  5>                          ****END OF INPUT****
 Total Charge           Charge          ....    0
 Multiplicity           Mult            ....    1
 Number of Electrons    NEL             ....   20
MP2 TOTAL ENERGY:     -112.766556459 Eh
FINAL SINGLE POINT ENERGY      -112.766556458602
MP2 TOTAL ENERGY:     -112.767672681 Eh
FINAL SINGLE POINT ENERGY      -112.767672681138
MP2 TOTAL ENERGY:     -112.768256727 Eh
FINAL SINGLE POINT ENERGY      -112.768256726950
MP2 TOTAL ENERGY:     -112.768427208 Eh
FINAL SINGLE POINT ENERGY      -112.768427208254
MP2 TOTAL ENERGY:     -112.768470689 Eh
FINAL SINGLE POINT ENERGY      -112.768470689262
MP2 TOTAL ENERGY:     -112.768481507 Eh
FINAL SINGLE POINT ENERGY      -112.768481506512
FINAL SINGLE POINT ENERGY      -112.768486703081
FINAL SINGLE POINT ENERGY      -112.768496423064
FINAL SINGLE POINT ENERGY      -112.768514395876
FINAL SINGLE POINT ENERGY      -112.768544667266
FINAL SINGLE POINT ENERGY      -112.768612653875
FINAL SINGLE POINT ENERGY      -112.768617273882
FINAL SINGLE POINT ENERGY      -112.768621439444
FINAL SINGLE POINT ENERGY      -112.768624212412
MP2 TOTAL ENERGY:     -112.768626607 Eh
FINAL SINGLE POINT ENERGY      -112.768626607192
MP2 TOTAL ENERGY:     -112.768629630 Eh
FINAL SINGLE POINT ENERGY      -112.768629630448
MP2 TOTAL ENERGY:     -112.768632614 Eh
FINAL SINGLE POINT ENERGY      -112.768632613825
MP2 TOTAL ENERGY:     -112.768634513 Eh
FINAL SINGLE POINT ENERGY      -112.768634512612
MP2 TOTAL ENERGY:     -112.768635140 Eh
FINAL SINGLE POINT ENERGY      -112.768635139520
                    ***********************HURRAY********************

CARTESIAN COORDINATES (ANGSTROEM)
---------------------------------
  N     -3.355440   -0.501790   -0.048062
  H     -3.191244   -0.653692    0.939786
  H     -2.563424   -0.900538   -0.537499
  H     -4.161165   -1.063424   -0.295259
  N     -3.959061    2.731174    0.143498
  H     -4.614700    2.981589   -0.587093
  H     -3.777032    1.736279    0.034632
  H     -3.095069    3.204788   -0.092291

 Multiplicity           Mult            ....    1
 Number of Electrons    NEL             ....   20
 Basis Dimension        Dim             ....   58

ORBITAL ENERGIES
----------------

  NO   OCC          E(Eh)            E(eV)
   0   2.0000     -15.554422      -423.2573
   1   2.0000     -15.506178      -421.9446
   2   2.0000      -1.151292       -31.3283
   3   2.0000      -1.104651       -30.0591
   4   2.0000      -0.635366       -17.2892
   5   2.0000      -0.634840       -17.2749
   6   2.0000      -0.589590       -16.0436
   7   2.0000      -0.589027       -16.0283
   8   2.0000      -0.438094       -11.9211
   9   2.0000      -0.392046       -10.6681
  10   0.0000       0.208303         5.6682
  11   0.0000       0.263474         7.1695
  12   0.0000       0.310682         8.4541
  13   0.0000       0.312801         8.5118
  14   0.0000       0.343937         9.3590

MULLIKEN ATOMIC CHARGES
-----------------------
   0 N :   -0.751251
   1 H :    0.262809
   2 H :    0.257592
   3 H :    0.258799
   4 N :   -0.780630
   5 H :    0.232479
   6 H :    0.288110
   7 H :    0.232093
Sum of atomic charges:   -0.0000000

LOEWDIN ATOMIC CHARGES
----------------------
   0 N :   -0.354854
   1 H :    0.131632
   2 H :    0.128793
   3 H :    0.129682
   4 N :   -0.394357
   5 H :    0.117169
   6 H :    0.124918
   7 H :    0.117017

  Mayer bond orders larger than 0.100000
B(  0-N ,  1-H ) :   0.8826 B(  0-N ,  2-H ) :   0.8849 B(  0-N ,  3-H ) :   0.8845
B(  4-N ,  5-H ) :   0.8968 B(  4-N ,  6-H ) :   0.8456 B(  4-N ,  7-H ) :   0.8970

MP2 TOTAL ENERGY:     -112.768635421 Eh
FINAL SINGLE POINT ENERGY      -112.768635421283

DIPOLE MOMENT
-------------

Method             : MP2
Type of density    : Electron Density
Multiplicity       :   1
Level              : Relaxed density
Irrep              :   0
Energy             :     0.0000000000000000 Eh
Basis              : AO
                                X                 Y                 Z
Electronic contribution:     -0.039686295      -0.050259222       0.126716175
Nuclear contribution   :      0.417155610      -1.066782111      -0.635549100
                        -----------------------------------------
Total Dipole Moment    :      0.377469314      -1.117041333      -0.508832925
                        -----------------------------------------
Magnitude (a.u.)       :      1.284202231
Magnitude (Debye)      :      3.264182662

VIBRATIONAL FREQUENCIES
-----------------------

Scaling factor for frequencies =  1.000000000  (already applied!)

     0:       0.00 cm**-1
     1:       0.00 cm**-1
     2:       0.00 cm**-1
     3:       0.00 cm**-1
     4:       0.00 cm**-1
     5:       0.00 cm**-1
     6:     -27.96 cm**-1  ***imaginary mode***
     7:      87.64 cm**-1
     8:     116.22 cm**-1
     9:     137.77 cm**-1
    10:     281.57 cm**-1
    11:     365.67 cm**-1
    12:    1126.36 cm**-1
    13:    1174.61 cm**-1
    14:    1716.58 cm**-1
    15:    1720.93 cm**-1
    16:    1727.74 cm**-1
    17:    1761.95 cm**-1
    18:    3528.31 cm**-1
    19:    3565.05 cm**-1
    20:    3674.39 cm**-1
    21:    3709.05 cm**-1
    22:    3719.78 cm**-1
    23:    3720.31 cm**-1

IR SPECTRUM
-----------

 Mode   freq       eps      Int      T**2         TX        TY        TZ
       cm**-1   L/(mol*cm) km/mol    a.u.
----------------------------------------------------------------------------
  7:     87.64   0.014840   74.99  0.052838  ( 0.055732 -0.151830 -0.163339)
  8:    116.22   0.009078   45.88  0.024375  (-0.148371 -0.026485 -0.040744)
  9:    137.77   0.001732    8.75  0.003922  (-0.019129  0.045269  0.038823)
 10:    281.57   0.014118   71.35  0.015647  ( 0.117122  0.021947  0.038053)
 11:    365.67   0.014687   74.22  0.012534  (-0.002836 -0.097420  0.055096)
 12:   1126.36   0.029956  151.38  0.008299  (-0.010497  0.086979 -0.024976)
 13:   1174.61   0.032990  166.72  0.008765  ( 0.031244 -0.024332 -0.084831)
 14:   1716.58   0.003677   18.58  0.000669  ( 0.010050  0.011720  0.020741)
 15:   1720.93   0.003676   18.58  0.000667  (-0.023923 -0.002515  0.009382)
 16:   1727.74   0.002622   13.25  0.000474  ( 0.005819 -0.017273  0.011890)
 17:   1761.95   0.002618   13.23  0.000464  (-0.020830 -0.001987 -0.005081)
 18:   3528.31   0.012970   65.55  0.001147  ( 0.004497 -0.033454  0.002779)
 19:   3565.05   0.000006    0.03  0.000001  ( 0.000107 -0.000374 -0.000605)
 20:   3674.39   0.009498   48.00  0.000807  ( 0.005312 -0.027808 -0.002266)
 21:   3709.05   0.000072    0.36  0.000006  (-0.002351 -0.000221 -0.000681)
 22:   3719.78   0.000549    2.78  0.000046  (-0.005629 -0.000398  0.003775)
 23:   3720.31   0.000674    3.41  0.000057  (-0.003658 -0.001423 -0.006415)

--------------------------
THERMOCHEMISTRY AT 298.15K
--------------------------

Temperature         ...   298.15 K
Pressure            ...     1.00 atm
Total Mass          ...    34.06 AMU
Quasi RRHO          ...     True
Cut-Off Frequency   ...     1.00 cm^-1

Throughout the following assumptions are being made:
  (1) The electronic state is orbitally nondegenerate
  (2) There are no thermally accessible electronically excited states
  (3) Hindered rotations indicated by low frequency modes are not
      treated as such but are treated as vibrations and this may
      cause some error
  (4) All equations used are the standard statistical mechanics
      equations for an ideal gas
  (5) All vibrations are strictly harmonic

freq.      87.64  E(vib)   ...       0.48
freq.     116.22  E(vib)   ...       0.44
freq.     137.77  E(vib)   ...       0.42
freq.     281.57  E(vib)   ...       0.28
freq.     365.67  E(vib)   ...       0.22
freq.    1126.36  E(vib)   ...       0.01
freq.    1174.61  E(vib)   ...       0.01
freq.    1716.58  E(vib)   ...       0.00
freq.    1720.93  E(vib)   ...       0.00
freq.    1727.74  E(vib)   ...       0.00
freq.    1761.95  E(vib)   ...       0.00
freq.    3528.31  E(vib)   ...       0.00
freq.    3565.05  E(vib)   ...       0.00
freq.    3674.39  E(vib)   ...       0.00
freq.    3709.05  E(vib)   ...       0.00
freq.    3719.78  E(vib)   ...       0.00
freq.    3720.31  E(vib)   ...       0.00

------------
INNER ENERGY
------------

The inner energy is: U= E(el) + E(ZPE) + E(vib) + E(rot) + E(trans)
    E(el)   - is the total energy from the electronic structure calculation
              = E(kin-el) + E(nuc-el) + E(el-el) + E(nuc-nuc)
    E(ZPE)  - the the zero temperature vibrational energy from the frequency calculation
    E(vib)  - the the finite temperature correction to E(ZPE) due to population
              of excited vibrational states
    E(rot)  - is the rotational thermal energy
    E(trans)- is the translational thermal energy

Summary of contributions to the inner energy U:
Electronic energy                ...   -112.76863543 Eh
Zero point energy                ...      0.07320654 Eh      45.94 kcal/mol
Thermal vibrational correction   ...      0.00296400 Eh       1.86 kcal/mol
Thermal rotational correction    ...      0.00141627 Eh       0.89 kcal/mol
Thermal translational correction ...      0.00141627 Eh       0.89 kcal/mol
-----------------------------------------------------------------------
Total thermal energy                   -112.68963235 Eh

Summary of corrections to the electronic energy:
(perhaps to be used in another calculation)
Total thermal correction                  0.00579654 Eh       3.64 kcal/mol
Non-thermal (ZPE) correction              0.07320654 Eh      45.94 kcal/mol
-----------------------------------------------------------------------
Total correction                          0.07900308 Eh      49.58 kcal/mol

--------
ENTHALPY
--------

The enthalpy is H = U + kB*T
                kB is Boltzmann's constant
Total thermal energy              ...   -112.68963235 Eh
Thermal Enthalpy correction       ...      0.00094421 Eh       0.59 kcal/mol
-----------------------------------------------------------------------
Total Enthalpy                    ...   -112.68868814 Eh

Note: Only C1 symmetry has been detected, increase convergence thresholds
      if your molecule has a higher symmetry. Symmetry factor of 1.0 is
      used for the rotational entropy correction.

Note: Rotational entropy computed according to Herzberg
Infrared and Raman Spectra, Chapter V,1, Van Nostrand Reinhold, 1945
Point Group:  C1, Symmetry Number:   1
Rotational constants in cm-1:     3.842193     0.171582     0.170039

Vibrational entropy computed according to the QRRHO of S. Grimme
Chem.Eur.J. 2012 18 9955 using a reference frequency of 100.0 cm-1

-------
ENTROPY
-------

The entropy contributions are T*S = T*(S(el)+S(vib)+S(rot)+S(trans))
     S(el)   - electronic entropy
     S(vib)  - vibrational entropy
     S(rot)  - rotational entropy
     S(trans)- translational entropy
The entropies will be listed as multiplied by the temperature to get
units of energy

Electronic entropy                ...      0.00000000 Eh      0.00 kcal/mol
Vibrational entropy               ...      0.00559333 Eh      3.51 kcal/mol
Rotational entropy                ...      0.01054392 Eh      6.62 kcal/mol
Translational entropy             ...      0.01734594 Eh     10.88 kcal/mol
-----------------------------------------------------------------------
Final entropy term                ...      0.03348319 Eh     21.01 kcal/mol

In case the symmetry of your molecule has not been determined correctly
or in case you have a reason to use a different symmetry number we print
out the resulting rotational entropy values for sn=1,12:

 non-linear molecules -----------------------------------
|  sn= 1 | S(rot)=       0.01054392 Eh      6.62 kcal/mol|
|  sn= 2 | S(rot)=       0.00988947 Eh      6.21 kcal/mol|
|  sn= 3 | S(rot)=       0.00950663 Eh      5.97 kcal/mol|
|  sn= 4 | S(rot)=       0.00923501 Eh      5.80 kcal/mol|
|  sn= 5 | S(rot)=       0.00902432 Eh      5.66 kcal/mol|
|  sn= 6 | S(rot)=       0.00885218 Eh      5.55 kcal/mol|
|  sn= 7 | S(rot)=       0.00870663 Eh      5.46 kcal/mol|
|  sn= 8 | S(rot)=       0.00858055 Eh      5.38 kcal/mol|
|  sn= 9 | S(rot)=       0.00846934 Eh      5.31 kcal/mol|
|  sn=10 | S(rot)=       0.00836987 Eh      5.25 kcal/mol|
|  sn=11 | S(rot)=       0.00827988 Eh      5.20 kcal/mol|
|  sn=12 | S(rot)=       0.00819772 Eh      5.14 kcal/mol|
 linear molecules ---------------------------------------
|  Dinfh | S(rot)=       0.00699864 Eh      4.39 kcal/mol|
|  Cinfv | S(rot)=       0.00765310 Eh      4.80 kcal/mol|
 --------------------------------------------------------

-------------------
GIBBS FREE ENERGY
-------------------

The Gibbs free energy is G = H - T*S

Total enthalpy                    ...   -112.68868814 Eh
Total entropy correction          ...     -0.03348319 Eh    -21.01 kcal/mol
-----------------------------------------------------------------------
Final Gibbs free energy         ...   -112.72217133 Eh

For completeness - the Gibbs free energy minus the electronic energy
G-E(el)                           ...      0.04646410 Eh     29.16 kcal/mol

                             ****ORCA TERMINATED NORMALLY****
TOTAL RUN TIME: 0 days 0 hours 1 minutes 2 seconds 158 msec
