                         Program Version 6.1.0  -  RELEASE   -
|  1> ! B3LYP 6-31G(d,p) opt
|  2>
|  3> %pal
|  4>   nprocs 6
|  5> end
|  6>
|  7> %geom
|  8>   Scan
|  9>     D 2 0 1 3 = 90, 180, 10
| 10>   end
| 11> end
| 12>
| 13> * xyz 0 1
| 14> O      1.898664    1.443259    0.020666
| 15> O      0.753450    0.429302   -0.020679
| 16> H      1.709786    2.306435   -0.524286
| 17> H      0.942328   -0.433874    0.524274
| 18> *
| 19>
| 20>
| 21>                          ****END OF INPUT****
 Total Charge           Charge          ....    0
 Multiplicity           Mult            ....    1
 Number of Electrons    NEL             ....   18
FINAL SINGLE POINT ENERGY      -151.326888473214
FINAL SINGLE POINT ENERGY      -151.374211293894
FINAL SINGLE POINT ENERGY      -151.418660575090
FINAL SINGLE POINT ENERGY      -151.465840969085
FINAL SINGLE POINT ENERGY      -151.463504577306
FINAL SINGLE POINT ENERGY      -151.471697049049
FINAL SINGLE POINT ENERGY      -151.471941383112
FINAL SINGLE POINT ENERGY      -151.471965569078
FINAL SINGLE POINT ENERGY      -151.471957448734
FINAL SINGLE POINT ENERGY      -151.471976416700
                    ***********************HURRAY********************
                    ***********************HURRAY********************
FINAL SINGLE POINT ENERGY      -151.472362104571
FINAL SINGLE POINT ENERGY      -151.472049859783
FINAL SINGLE POINT ENERGY      -151.472093720148
FINAL SINGLE POINT ENERGY      -151.472099695745
FINAL SINGLE POINT ENERGY      -151.471862154463
FINAL SINGLE POINT ENERGY      -151.471905138382
FINAL SINGLE POINT ENERGY      -151.471908514538
FINAL SINGLE POINT ENERGY      -151.471794691336
FINAL SINGLE POINT ENERGY      -151.471835056059

CARTESIAN COORDINATES (ANGSTROEM)
---------------------------------
  O      1.915161    1.368415    0.067976
  O      0.736948    0.504144   -0.067990
  H      1.606146    2.110466   -0.473606
  H      1.045973   -0.237902    0.473594

 Multiplicity           Mult            ....    1
 Number of Electrons    NEL             ....   18
 Basis Dimension        Dim             ....   38

ORBITAL ENERGIES
----------------

  NO   OCC          E(Eh)            E(eV)
   0   2.0000     -19.191222      -522.2197
   1   2.0000     -19.191200      -522.2191
   2   2.0000      -1.100190       -29.9377
   3   2.0000      -0.890311       -24.2266
   4   2.0000      -0.497889       -13.5482
   5   2.0000      -0.496499       -13.5104
   6   2.0000      -0.384761       -10.4699
   7   2.0000      -0.355259        -9.6671
   8   2.0000      -0.242342        -6.5945
   9   0.0000       0.025175         0.6850
  10   0.0000       0.075791         2.0624
  11   0.0000       0.125562         3.4167
  12   0.0000       0.757004        20.5991
  13   0.0000       0.763822        20.7846

MULLIKEN ATOMIC CHARGES
-----------------------
   0 O :   -0.345862
   1 O :   -0.345857
   2 H :    0.345860
   3 H :    0.345859
Sum of atomic charges:   -0.0000000

LOEWDIN ATOMIC CHARGES
----------------------
   0 O :   -0.174749
   1 O :   -0.174745
   2 H :    0.174747
   3 H :    0.174747

  Mayer bond orders larger than 0.100000
B(  0-O ,  1-O ) :   0.9714 B(  0-O ,  2-H ) :   0.8647 B(  1-O ,  3-H ) :   0.8647

FINAL SINGLE POINT ENERGY      -151.471838251182

DIPOLE MOMENT
-------------

Method             : SCF
Type of density    : Electron Density
Multiplicity       :   1
Irrep              :   0
Energy             :  -151.4718382511817083 Eh
Basis              : AO
                                X                 Y                 Z
Electronic contribution:     -0.000007527      -0.000002924      -0.000002234
Nuclear contribution   :      0.000007646       0.000004373       0.000001524
                        -----------------------------------------
Total Dipole Moment    :      0.000000118       0.000001449      -0.000000710
                        -----------------------------------------
Magnitude (a.u.)       :      0.000001618
Magnitude (Debye)      :      0.000004112

Rotational constants in cm-1:             9.984582             0.890550             0.817624
Rotational constants in MHz :        299330.226052         26698.012308         24511.748122

                             ****ORCA TERMINATED NORMALLY****
TOTAL RUN TIME: 0 days 0 hours 5 minutes 57 seconds 702 msec
