                         Program Version 6.1.0  -  RELEASE   -
|  1> ! B3LYP 6-31G(d,p) opt
|  2>
|  3> %pal
|  4>   nprocs 6
|  5> end
|  6>
|  7> %geom
|  8>   Scan
|  9>     A 1 0 2 = 94.0, 114.0, 21
| 10>   end
| 11> end
| 12>
| 13> * xyz 0 1
| 14> O     -4.384610    2.044134    0.002088
| 15> H     -3.527125    1.831276    0.657392
| 16> H     -3.999512    2.829153   -0.665428
| 17> *
| 18>
| 19>
| 20>                          ****END OF INPUT****
 Total Charge           Charge          ....    0
 Multiplicity           Mult            ....    1
 Number of Electrons    NEL             ....   10
FINAL SINGLE POINT ENERGY       -76.354776861936
FINAL SINGLE POINT ENERGY       -76.377892701208
FINAL SINGLE POINT ENERGY       -76.378338758148
FINAL SINGLE POINT ENERGY       -76.378577002458
FINAL SINGLE POINT ENERGY       -76.378578458239
                    ***********************HURRAY********************
FINAL SINGLE POINT ENERGY       -76.378577462770
FINAL SINGLE POINT ENERGY       -76.379078778169
FINAL SINGLE POINT ENERGY       -76.379079917223
                    ***********************HURRAY********************
FINAL SINGLE POINT ENERGY       -76.379080455685
FINAL SINGLE POINT ENERGY       -76.379524261058
FINAL SINGLE POINT ENERGY       -76.379979916820
FINAL SINGLE POINT ENERGY       -76.379637881353
FINAL SINGLE POINT ENERGY       -76.379612727953
FINAL SINGLE POINT ENERGY       -76.379631649743
FINAL SINGLE POINT ENERGY       -76.379245373140
FINAL SINGLE POINT ENERGY       -76.379221477120
FINAL SINGLE POINT ENERGY       -76.379241151449
FINAL SINGLE POINT ENERGY       -76.378810891773
FINAL SINGLE POINT ENERGY       -76.378789871861

CARTESIAN COORDINATES (ANGSTROEM)
---------------------------------
  O     -4.286925    2.089128    0.001113
  H     -3.591485    1.841584    0.614399
  H     -4.032838    2.773851   -0.621459

 Multiplicity           Mult            ....    1
 Number of Electrons    NEL             ....   10
 Basis Dimension        Dim             ....   24

ORBITAL ENERGIES
----------------

  NO   OCC          E(Eh)            E(eV)
   0   2.0000     -19.122569      -520.3516
   1   2.0000      -0.985984       -26.8300
   2   2.0000      -0.528552       -14.3826
   3   2.0000      -0.345658        -9.4058
   4   2.0000      -0.283969        -7.7272
   5   0.0000       0.073129         1.9899
   6   0.0000       0.159213         4.3324
   7   0.0000       0.786401        21.3991
   8   0.0000       0.799588        21.7579
   9   0.0000       0.898238        24.4423

MULLIKEN ATOMIC CHARGES
-----------------------
   0 O :   -0.626819
   1 H :    0.313420
   2 H :    0.313399
Sum of atomic charges:    0.0000000

LOEWDIN ATOMIC CHARGES
----------------------
   0 O :   -0.324868
   1 H :    0.162436
   2 H :    0.162432

  Mayer bond orders larger than 0.100000
B(  0-O ,  1-H ) :   0.8923 B(  0-O ,  2-H ) :   0.8923

FINAL SINGLE POINT ENERGY       -76.378809453897

DIPOLE MOMENT
-------------

Method             : SCF
Type of density    : Electron Density
Multiplicity       :   1
Irrep              :   0
Energy             :   -76.3788094538966789 Eh
Basis              : AO
                                X                 Y                 Z
Electronic contribution:     -0.121814101      -0.056011313       0.001151259
Nuclear contribution   :      0.790349218       0.363889884      -0.007729148
                        -----------------------------------------
Total Dipole Moment    :      0.668535117       0.307878571      -0.006577888
                        -----------------------------------------
Magnitude (a.u.)       :      0.736051415
Magnitude (Debye)      :      1.870894014

Rotational constants in cm-1:            34.463666            12.907876             9.390716
Rotational constants in MHz :       1033194.725292        386968.375211        281526.596474

                             ****ORCA TERMINATED NORMALLY****
TOTAL RUN TIME: 0 days 0 hours 7 minutes 33 seconds 198 msec
