                         Program Version 6.1.0  -  RELEASE   -
|  1> ! MP2 6-311G** opt numfreq
|  2>
|  3> * xyzfile 0 1 /home/vivek/mm/lab5/6-311/hf/monomer/monomer-input-coordinates.xyz
|  4>
|  5>                          ****END OF INPUT****
 Total Charge           Charge          ....    0
 Multiplicity           Mult            ....    1
 Number of Electrons    NEL             ....   10
MP2 TOTAL ENERGY:     -100.266452755 Eh
FINAL SINGLE POINT ENERGY      -100.266452755022
MP2 TOTAL ENERGY:     -100.267200320 Eh
FINAL SINGLE POINT ENERGY      -100.267200319905
MP2 TOTAL ENERGY:     -100.267215411 Eh
FINAL SINGLE POINT ENERGY      -100.267215410756
MP2 TOTAL ENERGY:     -100.267215547 Eh
FINAL SINGLE POINT ENERGY      -100.267215546836
                    ***********************HURRAY********************

CARTESIAN COORDINATES (ANGSTROEM)
---------------------------------
  F     -1.434630    2.407566    0.114368
  H     -0.613813    2.314266    0.502666

 Multiplicity           Mult            ....    1
 Number of Electrons    NEL             ....   10
 Basis Dimension        Dim             ....   24

ORBITAL ENERGIES
----------------

  NO   OCC          E(Eh)            E(eV)
   0   2.0000     -26.273762      -714.9454
   1   2.0000      -1.588613       -43.2284
   2   2.0000      -0.756027       -20.5726
   3   2.0000      -0.637572       -17.3492
   4   2.0000      -0.637572       -17.3492
   5   0.0000       0.148000         4.0273
   6   0.0000       0.572332        15.5739
   7   0.0000       1.205882        32.8137
   8   0.0000       1.205882        32.8137
   9   0.0000       1.234724        33.5986

MULLIKEN ATOMIC CHARGES
-----------------------
   0 F :   -0.300544
   1 H :    0.300544
Sum of atomic charges:    0.0000000

LOEWDIN ATOMIC CHARGES
----------------------
   0 F :   -0.040568
   1 H :    0.040568

  Mayer bond orders larger than 0.100000
B(  0-F ,  1-H ) :   0.9238

MP2 TOTAL ENERGY:     -100.267215540 Eh
FINAL SINGLE POINT ENERGY      -100.267215540012

DIPOLE MOMENT
-------------

Method             : MP2
Type of density    : Electron Density
Multiplicity       :   1
Level              : Relaxed density
Irrep              :   0
Energy             :     0.0000000000000000 Eh
Basis              : AO
                                X                 Y                 Z
Electronic contribution:     -0.097220698       0.011050760      -0.045991497
Nuclear contribution   :      0.769590186      -0.087476812       0.364064503
                        -----------------------------------------
Total Dipole Moment    :      0.672369488      -0.076426052       0.318073005
                        -----------------------------------------
Magnitude (a.u.)       :      0.747724619
Magnitude (Debye)      :      1.900564942

VIBRATIONAL FREQUENCIES
-----------------------

Scaling factor for frequencies =  1.000000000  (already applied!)

     0:       0.00 cm**-1
     1:       0.00 cm**-1
     2:       0.00 cm**-1
     3:       0.00 cm**-1
     4:       0.00 cm**-1
     5:    4251.32 cm**-1

IR SPECTRUM
-----------

 Mode   freq       eps      Int      T**2         TX        TY        TZ
       cm**-1   L/(mol*cm) km/mol    a.u.
----------------------------------------------------------------------------
  5:   4251.32   0.020945  105.85  0.001537  ( 0.035272 -0.003992  0.016655)

--------------------------
THERMOCHEMISTRY AT 298.15K
--------------------------

Temperature         ...   298.15 K
Pressure            ...     1.00 atm
Total Mass          ...    20.01 AMU
Quasi RRHO          ...     True
Cut-Off Frequency   ...     1.00 cm^-1
The molecule is recognized as being linear

Throughout the following assumptions are being made:
  (1) The electronic state is orbitally nondegenerate
  (2) There are no thermally accessible electronically excited states
  (3) Hindered rotations indicated by low frequency modes are not
      treated as such but are treated as vibrations and this may
      cause some error
  (4) All equations used are the standard statistical mechanics
      equations for an ideal gas
  (5) All vibrations are strictly harmonic

freq.    4251.32  E(vib)   ...       0.00

------------
INNER ENERGY
------------

The inner energy is: U= E(el) + E(ZPE) + E(vib) + E(rot) + E(trans)
    E(el)   - is the total energy from the electronic structure calculation
              = E(kin-el) + E(nuc-el) + E(el-el) + E(nuc-nuc)
    E(ZPE)  - the the zero temperature vibrational energy from the frequency calculation
    E(vib)  - the the finite temperature correction to E(ZPE) due to population
              of excited vibrational states
    E(rot)  - is the rotational thermal energy
    E(trans)- is the translational thermal energy

Summary of contributions to the inner energy U:
Electronic energy                ...   -100.26721554 Eh
Zero point energy                ...      0.00968523 Eh       6.08 kcal/mol
Thermal vibrational correction   ...      0.00000000 Eh       0.00 kcal/mol
Thermal rotational correction    ...      0.00094418 Eh       0.59 kcal/mol
Thermal translational correction ...      0.00141627 Eh       0.89 kcal/mol
-----------------------------------------------------------------------
Total thermal energy                   -100.25516987 Eh

Summary of corrections to the electronic energy:
(perhaps to be used in another calculation)
Total thermal correction                  0.00236045 Eh       1.48 kcal/mol
Non-thermal (ZPE) correction              0.00968523 Eh       6.08 kcal/mol
-----------------------------------------------------------------------
Total correction                          0.01204568 Eh       7.56 kcal/mol

--------
ENTHALPY
--------

The enthalpy is H = U + kB*T
                kB is Boltzmann's constant
Total thermal energy              ...   -100.25516987 Eh
Thermal Enthalpy correction       ...      0.00094421 Eh       0.59 kcal/mol
-----------------------------------------------------------------------
Total Enthalpy                    ...   -100.25422566 Eh

Note: Rotational entropy computed according to Herzberg
Infrared and Raman Spectra, Chapter V,1, Van Nostrand Reinhold, 1945
Point Group:  C(inf)v, Symmetry Number:   1
Rotational constants in cm-1:     0.000000    21.136258    21.136258

Vibrational entropy computed according to the QRRHO of S. Grimme
Chem.Eur.J. 2012 18 9955 using a reference frequency of 100.0 cm-1

-------
ENTROPY
-------

The entropy contributions are T*S = T*(S(el)+S(vib)+S(rot)+S(trans))
     S(el)   - electronic entropy
     S(vib)  - vibrational entropy
     S(rot)  - rotational entropy
     S(trans)- translational entropy
The entropies will be listed as multiplied by the temperature to get
units of energy

Electronic entropy                ...      0.00000000 Eh      0.00 kcal/mol
Vibrational entropy               ...     -0.00000000 Eh     -0.00 kcal/mol
Rotational entropy                ...      0.00309958 Eh      1.95 kcal/mol
Translational entropy             ...      0.01659227 Eh     10.41 kcal/mol
-----------------------------------------------------------------------
Final entropy term                ...      0.01969184 Eh     12.36 kcal/mol

-------------------
GIBBS FREE ENERGY
-------------------

The Gibbs free energy is G = H - T*S

Total enthalpy                    ...   -100.25422566 Eh
Total entropy correction          ...     -0.01969184 Eh    -12.36 kcal/mol
-----------------------------------------------------------------------
Final Gibbs free energy         ...   -100.27391750 Eh

For completeness - the Gibbs free energy minus the electronic energy
G-E(el)                           ...     -0.00670195 Eh     -4.21 kcal/mol

                             ****ORCA TERMINATED NORMALLY****
TOTAL RUN TIME: 0 days 0 hours 1 minutes 4 seconds 400 msec
